phonopy:
  version: "3.5.1"
  frequency_unit_conversion_factor: 15.633302
  symmetry_tolerance: 1.00000e-05

physical_unit:
  atomic_mass: "AMU"
  length: "angstrom"
  force: "eV/angstrom"
  force_constants: "eV/angstrom^2"

space_group:
  type: "Fm-3m"
  number: 225
  Hall_symbol: "-F 4 2 3"

primitive_matrix:
- [  1.000000000000000,  0.000000000000000,  0.000000000000000 ]
- [  0.000000000000000,  1.000000000000000,  0.000000000000000 ]
- [  0.000000000000000,  0.000000000000000,  1.000000000000000 ]

supercell_matrix:
- [   5,   0,   0 ]
- [   0,   5,   0 ]
- [   0,   0,   5 ]

primitive_cell:
  lattice:
  - [     0.000000000000000,     1.750000000000000,     1.750000000000000 ] # a
  - [     1.750000000000000,     0.000000000000000,     1.750000000000000 ] # b
  - [     1.750000000000000,     1.750000000000000,     0.000000000000000 ] # c
  points:
  - symbol: Fe # 1
    coordinates: [  0.000000000000000,  0.000000000000000,  0.000000000000000 ]
    mass: 55.845000
  reciprocal_lattice: # without 2pi
  - [    -0.285714285714286,     0.285714285714286,     0.285714285714286 ] # a*
  - [     0.285714285714286,    -0.285714285714286,     0.285714285714286 ] # b*
  - [     0.285714285714286,     0.285714285714286,    -0.285714285714286 ] # c*

unit_cell:
  lattice:
  - [     0.000000000000000,     1.750000000000000,     1.750000000000000 ] # a
  - [     1.750000000000000,     0.000000000000000,     1.750000000000000 ] # b
  - [     1.750000000000000,     1.750000000000000,     0.000000000000000 ] # c
  points:
  - symbol: Fe # 1
    coordinates: [  0.000000000000000,  0.000000000000000,  0.000000000000000 ]
    mass: 55.845000
    reduced_to: 1

supercell:
  lattice:
  - [     0.000000000000000,     8.750000000000000,     8.750000000000000 ] # a
  - [     8.750000000000000,     0.000000000000000,     8.750000000000000 ] # b
  - [     8.750000000000000,     8.750000000000000,     0.000000000000000 ] # c
  points:
  - symbol: Fe # 1
    coordinates: [  0.000000000000000,  0.000000000000000,  0.000000000000000 ]
    mass: 55.845000
    reduced_to: 1
  - symbol: Fe # 2
    coordinates: [  0.200000000000000,  0.000000000000000,  0.000000000000000 ]
    mass: 55.845000
    reduced_to: 1
  - symbol: Fe # 3
    coordinates: [  0.400000000000000,  0.000000000000000,  0.000000000000000 ]
    mass: 55.845000
    reduced_to: 1
  - symbol: Fe # 4
    coordinates: [  0.600000000000000,  0.000000000000000,  0.000000000000000 ]
    mass: 55.845000
    reduced_to: 1
  - symbol: Fe # 5
    coordinates: [  0.800000000000000,  0.000000000000000,  0.000000000000000 ]
    mass: 55.845000
    reduced_to: 1
  - symbol: Fe # 6
    coordinates: [  0.000000000000000,  0.200000000000000,  0.000000000000000 ]
    mass: 55.845000
    reduced_to: 1
  - symbol: Fe # 7
    coordinates: [  0.200000000000000,  0.200000000000000,  0.000000000000000 ]
    mass: 55.845000
    reduced_to: 1
  - symbol: Fe # 8
    coordinates: [  0.400000000000000,  0.200000000000000,  0.000000000000000 ]
    mass: 55.845000
    reduced_to: 1
  - symbol: Fe # 9
    coordinates: [  0.600000000000000,  0.200000000000000,  0.000000000000000 ]
    mass: 55.845000
    reduced_to: 1
  - symbol: Fe # 10
    coordinates: [  0.800000000000000,  0.200000000000000,  0.000000000000000 ]
    mass: 55.845000
    reduced_to: 1
  - symbol: Fe # 11
    coordinates: [  0.000000000000000,  0.400000000000000,  0.000000000000000 ]
    mass: 55.845000
    reduced_to: 1
  - symbol: Fe # 12
    coordinates: [  0.200000000000000,  0.400000000000000,  0.000000000000000 ]
    mass: 55.845000
    reduced_to: 1
  - symbol: Fe # 13
    coordinates: [  0.400000000000000,  0.400000000000000,  0.000000000000000 ]
    mass: 55.845000
    reduced_to: 1
  - symbol: Fe # 14
    coordinates: [  0.600000000000000,  0.400000000000000,  0.000000000000000 ]
    mass: 55.845000
    reduced_to: 1
  - symbol: Fe # 15
    coordinates: [  0.800000000000000,  0.400000000000000,  0.000000000000000 ]
    mass: 55.845000
    reduced_to: 1
  - symbol: Fe # 16
    coordinates: [  0.000000000000000,  0.600000000000000,  0.000000000000000 ]
    mass: 55.845000
    reduced_to: 1
  - symbol: Fe # 17
    coordinates: [  0.200000000000000,  0.600000000000000,  0.000000000000000 ]
    mass: 55.845000
    reduced_to: 1
  - symbol: Fe # 18
    coordinates: [  0.400000000000000,  0.600000000000000,  0.000000000000000 ]
    mass: 55.845000
    reduced_to: 1
  - symbol: Fe # 19
    coordinates: [  0.600000000000000,  0.600000000000000,  0.000000000000000 ]
    mass: 55.845000
    reduced_to: 1
  - symbol: Fe # 20
    coordinates: [  0.800000000000000,  0.600000000000000,  0.000000000000000 ]
    mass: 55.845000
    reduced_to: 1
  - symbol: Fe # 21
    coordinates: [  0.000000000000000,  0.800000000000000,  0.000000000000000 ]
    mass: 55.845000
    reduced_to: 1
  - symbol: Fe # 22
    coordinates: [  0.200000000000000,  0.800000000000000,  0.000000000000000 ]
    mass: 55.845000
    reduced_to: 1
  - symbol: Fe # 23
    coordinates: [  0.400000000000000,  0.800000000000000,  0.000000000000000 ]
    mass: 55.845000
    reduced_to: 1
  - symbol: Fe # 24
    coordinates: [  0.600000000000000,  0.800000000000000,  0.000000000000000 ]
    mass: 55.845000
    reduced_to: 1
  - symbol: Fe # 25
    coordinates: [  0.800000000000000,  0.800000000000000,  0.000000000000000 ]
    mass: 55.845000
    reduced_to: 1
  - symbol: Fe # 26
    coordinates: [  0.000000000000000,  0.000000000000000,  0.200000000000000 ]
    mass: 55.845000
    reduced_to: 1
  - symbol: Fe # 27
    coordinates: [  0.200000000000000,  0.000000000000000,  0.200000000000000 ]
    mass: 55.845000
    reduced_to: 1
  - symbol: Fe # 28
    coordinates: [  0.400000000000000,  0.000000000000000,  0.200000000000000 ]
    mass: 55.845000
    reduced_to: 1
  - symbol: Fe # 29
    coordinates: [  0.600000000000000,  0.000000000000000,  0.200000000000000 ]
    mass: 55.845000
    reduced_to: 1
  - symbol: Fe # 30
    coordinates: [  0.800000000000000,  0.000000000000000,  0.200000000000000 ]
    mass: 55.845000
    reduced_to: 1
  - symbol: Fe # 31
    coordinates: [  0.000000000000000,  0.200000000000000,  0.200000000000000 ]
    mass: 55.845000
    reduced_to: 1
  - symbol: Fe # 32
    coordinates: [  0.200000000000000,  0.200000000000000,  0.200000000000000 ]
    mass: 55.845000
    reduced_to: 1
  - symbol: Fe # 33
    coordinates: [  0.400000000000000,  0.200000000000000,  0.200000000000000 ]
    mass: 55.845000
    reduced_to: 1
  - symbol: Fe # 34
    coordinates: [  0.600000000000000,  0.200000000000000,  0.200000000000000 ]
    mass: 55.845000
    reduced_to: 1
  - symbol: Fe # 35
    coordinates: [  0.800000000000000,  0.200000000000000,  0.200000000000000 ]
    mass: 55.845000
    reduced_to: 1
  - symbol: Fe # 36
    coordinates: [  0.000000000000000,  0.400000000000000,  0.200000000000000 ]
    mass: 55.845000
    reduced_to: 1
  - symbol: Fe # 37
    coordinates: [  0.200000000000000,  0.400000000000000,  0.200000000000000 ]
    mass: 55.845000
    reduced_to: 1
  - symbol: Fe # 38
    coordinates: [  0.400000000000000,  0.400000000000000,  0.200000000000000 ]
    mass: 55.845000
    reduced_to: 1
  - symbol: Fe # 39
    coordinates: [  0.600000000000000,  0.400000000000000,  0.200000000000000 ]
    mass: 55.845000
    reduced_to: 1
  - symbol: Fe # 40
    coordinates: [  0.800000000000000,  0.400000000000000,  0.200000000000000 ]
    mass: 55.845000
    reduced_to: 1
  - symbol: Fe # 41
    coordinates: [  0.000000000000000,  0.600000000000000,  0.200000000000000 ]
    mass: 55.845000
    reduced_to: 1
  - symbol: Fe # 42
    coordinates: [  0.200000000000000,  0.600000000000000,  0.200000000000000 ]
    mass: 55.845000
    reduced_to: 1
  - symbol: Fe # 43
    coordinates: [  0.400000000000000,  0.600000000000000,  0.200000000000000 ]
    mass: 55.845000
    reduced_to: 1
  - symbol: Fe # 44
    coordinates: [  0.600000000000000,  0.600000000000000,  0.200000000000000 ]
    mass: 55.845000
    reduced_to: 1
  - symbol: Fe # 45
    coordinates: [  0.800000000000000,  0.600000000000000,  0.200000000000000 ]
    mass: 55.845000
    reduced_to: 1
  - symbol: Fe # 46
    coordinates: [  0.000000000000000,  0.800000000000000,  0.200000000000000 ]
    mass: 55.845000
    reduced_to: 1
  - symbol: Fe # 47
    coordinates: [  0.200000000000000,  0.800000000000000,  0.200000000000000 ]
    mass: 55.845000
    reduced_to: 1
  - symbol: Fe # 48
    coordinates: [  0.400000000000000,  0.800000000000000,  0.200000000000000 ]
    mass: 55.845000
    reduced_to: 1
  - symbol: Fe # 49
    coordinates: [  0.600000000000000,  0.800000000000000,  0.200000000000000 ]
    mass: 55.845000
    reduced_to: 1
  - symbol: Fe # 50
    coordinates: [  0.800000000000000,  0.800000000000000,  0.200000000000000 ]
    mass: 55.845000
    reduced_to: 1
  - symbol: Fe # 51
    coordinates: [  0.000000000000000,  0.000000000000000,  0.400000000000000 ]
    mass: 55.845000
    reduced_to: 1
  - symbol: Fe # 52
    coordinates: [  0.200000000000000,  0.000000000000000,  0.400000000000000 ]
    mass: 55.845000
    reduced_to: 1
  - symbol: Fe # 53
    coordinates: [  0.400000000000000,  0.000000000000000,  0.400000000000000 ]
    mass: 55.845000
    reduced_to: 1
  - symbol: Fe # 54
    coordinates: [  0.600000000000000,  0.000000000000000,  0.400000000000000 ]
    mass: 55.845000
    reduced_to: 1
  - symbol: Fe # 55
    coordinates: [  0.800000000000000,  0.000000000000000,  0.400000000000000 ]
    mass: 55.845000
    reduced_to: 1
  - symbol: Fe # 56
    coordinates: [  0.000000000000000,  0.200000000000000,  0.400000000000000 ]
    mass: 55.845000
    reduced_to: 1
  - symbol: Fe # 57
    coordinates: [  0.200000000000000,  0.200000000000000,  0.400000000000000 ]
    mass: 55.845000
    reduced_to: 1
  - symbol: Fe # 58
    coordinates: [  0.400000000000000,  0.200000000000000,  0.400000000000000 ]
    mass: 55.845000
    reduced_to: 1
  - symbol: Fe # 59
    coordinates: [  0.600000000000000,  0.200000000000000,  0.400000000000000 ]
    mass: 55.845000
    reduced_to: 1
  - symbol: Fe # 60
    coordinates: [  0.800000000000000,  0.200000000000000,  0.400000000000000 ]
    mass: 55.845000
    reduced_to: 1
  - symbol: Fe # 61
    coordinates: [  0.000000000000000,  0.400000000000000,  0.400000000000000 ]
    mass: 55.845000
    reduced_to: 1
  - symbol: Fe # 62
    coordinates: [  0.200000000000000,  0.400000000000000,  0.400000000000000 ]
    mass: 55.845000
    reduced_to: 1
  - symbol: Fe # 63
    coordinates: [  0.400000000000000,  0.400000000000000,  0.400000000000000 ]
    mass: 55.845000
    reduced_to: 1
  - symbol: Fe # 64
    coordinates: [  0.600000000000000,  0.400000000000000,  0.400000000000000 ]
    mass: 55.845000
    reduced_to: 1
  - symbol: Fe # 65
    coordinates: [  0.800000000000000,  0.400000000000000,  0.400000000000000 ]
    mass: 55.845000
    reduced_to: 1
  - symbol: Fe # 66
    coordinates: [  0.000000000000000,  0.600000000000000,  0.400000000000000 ]
    mass: 55.845000
    reduced_to: 1
  - symbol: Fe # 67
    coordinates: [  0.200000000000000,  0.600000000000000,  0.400000000000000 ]
    mass: 55.845000
    reduced_to: 1
  - symbol: Fe # 68
    coordinates: [  0.400000000000000,  0.600000000000000,  0.400000000000000 ]
    mass: 55.845000
    reduced_to: 1
  - symbol: Fe # 69
    coordinates: [  0.600000000000000,  0.600000000000000,  0.400000000000000 ]
    mass: 55.845000
    reduced_to: 1
  - symbol: Fe # 70
    coordinates: [  0.800000000000000,  0.600000000000000,  0.400000000000000 ]
    mass: 55.845000
    reduced_to: 1
  - symbol: Fe # 71
    coordinates: [  0.000000000000000,  0.800000000000000,  0.400000000000000 ]
    mass: 55.845000
    reduced_to: 1
  - symbol: Fe # 72
    coordinates: [  0.200000000000000,  0.800000000000000,  0.400000000000000 ]
    mass: 55.845000
    reduced_to: 1
  - symbol: Fe # 73
    coordinates: [  0.400000000000000,  0.800000000000000,  0.400000000000000 ]
    mass: 55.845000
    reduced_to: 1
  - symbol: Fe # 74
    coordinates: [  0.600000000000000,  0.800000000000000,  0.400000000000000 ]
    mass: 55.845000
    reduced_to: 1
  - symbol: Fe # 75
    coordinates: [  0.800000000000000,  0.800000000000000,  0.400000000000000 ]
    mass: 55.845000
    reduced_to: 1
  - symbol: Fe # 76
    coordinates: [  0.000000000000000,  0.000000000000000,  0.600000000000000 ]
    mass: 55.845000
    reduced_to: 1
  - symbol: Fe # 77
    coordinates: [  0.200000000000000,  0.000000000000000,  0.600000000000000 ]
    mass: 55.845000
    reduced_to: 1
  - symbol: Fe # 78
    coordinates: [  0.400000000000000,  0.000000000000000,  0.600000000000000 ]
    mass: 55.845000
    reduced_to: 1
  - symbol: Fe # 79
    coordinates: [  0.600000000000000,  0.000000000000000,  0.600000000000000 ]
    mass: 55.845000
    reduced_to: 1
  - symbol: Fe # 80
    coordinates: [  0.800000000000000,  0.000000000000000,  0.600000000000000 ]
    mass: 55.845000
    reduced_to: 1
  - symbol: Fe # 81
    coordinates: [  0.000000000000000,  0.200000000000000,  0.600000000000000 ]
    mass: 55.845000
    reduced_to: 1
  - symbol: Fe # 82
    coordinates: [  0.200000000000000,  0.200000000000000,  0.600000000000000 ]
    mass: 55.845000
    reduced_to: 1
  - symbol: Fe # 83
    coordinates: [  0.400000000000000,  0.200000000000000,  0.600000000000000 ]
    mass: 55.845000
    reduced_to: 1
  - symbol: Fe # 84
    coordinates: [  0.600000000000000,  0.200000000000000,  0.600000000000000 ]
    mass: 55.845000
    reduced_to: 1
  - symbol: Fe # 85
    coordinates: [  0.800000000000000,  0.200000000000000,  0.600000000000000 ]
    mass: 55.845000
    reduced_to: 1
  - symbol: Fe # 86
    coordinates: [  0.000000000000000,  0.400000000000000,  0.600000000000000 ]
    mass: 55.845000
    reduced_to: 1
  - symbol: Fe # 87
    coordinates: [  0.200000000000000,  0.400000000000000,  0.600000000000000 ]
    mass: 55.845000
    reduced_to: 1
  - symbol: Fe # 88
    coordinates: [  0.400000000000000,  0.400000000000000,  0.600000000000000 ]
    mass: 55.845000
    reduced_to: 1
  - symbol: Fe # 89
    coordinates: [  0.600000000000000,  0.400000000000000,  0.600000000000000 ]
    mass: 55.845000
    reduced_to: 1
  - symbol: Fe # 90
    coordinates: [  0.800000000000000,  0.400000000000000,  0.600000000000000 ]
    mass: 55.845000
    reduced_to: 1
  - symbol: Fe # 91
    coordinates: [  0.000000000000000,  0.600000000000000,  0.600000000000000 ]
    mass: 55.845000
    reduced_to: 1
  - symbol: Fe # 92
    coordinates: [  0.200000000000000,  0.600000000000000,  0.600000000000000 ]
    mass: 55.845000
    reduced_to: 1
  - symbol: Fe # 93
    coordinates: [  0.400000000000000,  0.600000000000000,  0.600000000000000 ]
    mass: 55.845000
    reduced_to: 1
  - symbol: Fe # 94
    coordinates: [  0.600000000000000,  0.600000000000000,  0.600000000000000 ]
    mass: 55.845000
    reduced_to: 1
  - symbol: Fe # 95
    coordinates: [  0.800000000000000,  0.600000000000000,  0.600000000000000 ]
    mass: 55.845000
    reduced_to: 1
  - symbol: Fe # 96
    coordinates: [  0.000000000000000,  0.800000000000000,  0.600000000000000 ]
    mass: 55.845000
    reduced_to: 1
  - symbol: Fe # 97
    coordinates: [  0.200000000000000,  0.800000000000000,  0.600000000000000 ]
    mass: 55.845000
    reduced_to: 1
  - symbol: Fe # 98
    coordinates: [  0.400000000000000,  0.800000000000000,  0.600000000000000 ]
    mass: 55.845000
    reduced_to: 1
  - symbol: Fe # 99
    coordinates: [  0.600000000000000,  0.800000000000000,  0.600000000000000 ]
    mass: 55.845000
    reduced_to: 1
  - symbol: Fe # 100
    coordinates: [  0.800000000000000,  0.800000000000000,  0.600000000000000 ]
    mass: 55.845000
    reduced_to: 1
  - symbol: Fe # 101
    coordinates: [  0.000000000000000,  0.000000000000000,  0.800000000000000 ]
    mass: 55.845000
    reduced_to: 1
  - symbol: Fe # 102
    coordinates: [  0.200000000000000,  0.000000000000000,  0.800000000000000 ]
    mass: 55.845000
    reduced_to: 1
  - symbol: Fe # 103
    coordinates: [  0.400000000000000,  0.000000000000000,  0.800000000000000 ]
    mass: 55.845000
    reduced_to: 1
  - symbol: Fe # 104
    coordinates: [  0.600000000000000,  0.000000000000000,  0.800000000000000 ]
    mass: 55.845000
    reduced_to: 1
  - symbol: Fe # 105
    coordinates: [  0.800000000000000,  0.000000000000000,  0.800000000000000 ]
    mass: 55.845000
    reduced_to: 1
  - symbol: Fe # 106
    coordinates: [  0.000000000000000,  0.200000000000000,  0.800000000000000 ]
    mass: 55.845000
    reduced_to: 1
  - symbol: Fe # 107
    coordinates: [  0.200000000000000,  0.200000000000000,  0.800000000000000 ]
    mass: 55.845000
    reduced_to: 1
  - symbol: Fe # 108
    coordinates: [  0.400000000000000,  0.200000000000000,  0.800000000000000 ]
    mass: 55.845000
    reduced_to: 1
  - symbol: Fe # 109
    coordinates: [  0.600000000000000,  0.200000000000000,  0.800000000000000 ]
    mass: 55.845000
    reduced_to: 1
  - symbol: Fe # 110
    coordinates: [  0.800000000000000,  0.200000000000000,  0.800000000000000 ]
    mass: 55.845000
    reduced_to: 1
  - symbol: Fe # 111
    coordinates: [  0.000000000000000,  0.400000000000000,  0.800000000000000 ]
    mass: 55.845000
    reduced_to: 1
  - symbol: Fe # 112
    coordinates: [  0.200000000000000,  0.400000000000000,  0.800000000000000 ]
    mass: 55.845000
    reduced_to: 1
  - symbol: Fe # 113
    coordinates: [  0.400000000000000,  0.400000000000000,  0.800000000000000 ]
    mass: 55.845000
    reduced_to: 1
  - symbol: Fe # 114
    coordinates: [  0.600000000000000,  0.400000000000000,  0.800000000000000 ]
    mass: 55.845000
    reduced_to: 1
  - symbol: Fe # 115
    coordinates: [  0.800000000000000,  0.400000000000000,  0.800000000000000 ]
    mass: 55.845000
    reduced_to: 1
  - symbol: Fe # 116
    coordinates: [  0.000000000000000,  0.600000000000000,  0.800000000000000 ]
    mass: 55.845000
    reduced_to: 1
  - symbol: Fe # 117
    coordinates: [  0.200000000000000,  0.600000000000000,  0.800000000000000 ]
    mass: 55.845000
    reduced_to: 1
  - symbol: Fe # 118
    coordinates: [  0.400000000000000,  0.600000000000000,  0.800000000000000 ]
    mass: 55.845000
    reduced_to: 1
  - symbol: Fe # 119
    coordinates: [  0.600000000000000,  0.600000000000000,  0.800000000000000 ]
    mass: 55.845000
    reduced_to: 1
  - symbol: Fe # 120
    coordinates: [  0.800000000000000,  0.600000000000000,  0.800000000000000 ]
    mass: 55.845000
    reduced_to: 1
  - symbol: Fe # 121
    coordinates: [  0.000000000000000,  0.800000000000000,  0.800000000000000 ]
    mass: 55.845000
    reduced_to: 1
  - symbol: Fe # 122
    coordinates: [  0.200000000000000,  0.800000000000000,  0.800000000000000 ]
    mass: 55.845000
    reduced_to: 1
  - symbol: Fe # 123
    coordinates: [  0.400000000000000,  0.800000000000000,  0.800000000000000 ]
    mass: 55.845000
    reduced_to: 1
  - symbol: Fe # 124
    coordinates: [  0.600000000000000,  0.800000000000000,  0.800000000000000 ]
    mass: 55.845000
    reduced_to: 1
  - symbol: Fe # 125
    coordinates: [  0.800000000000000,  0.800000000000000,  0.800000000000000 ]
    mass: 55.845000
    reduced_to: 1

displacements:
- atom:    1
  displacement:
    [   0.0000000000000000,  0.0070710678118655,  0.0070710678118655 ]
  forces:
  - [  -0.0000001934822649, -0.0536783859133720, -0.0536784976720810 ]
  - [  -0.0000001942644303,  0.0152946077287197,  0.0152944307774305 ]
  - [   0.0000001461012289, -0.0018769807647914, -0.0018768711015582 ]
  - [  -0.0000002493507054, -0.0018919153371826, -0.0018918245332316 ]
  - [  -0.0000002603046596,  0.0147609487175941,  0.0147608555853367 ]
  - [   0.0077838678844273,  0.0008451741305180,  0.0073470873758197 ]
  - [   0.0002119314158335,  0.0001429710537195, -0.0000897212885320 ]
  - [   0.0000017955899239, -0.0001740598818287, -0.0001739008584991 ]
  - [  -0.0001836966403062, -0.0001231729402207,  0.0001262336154468 ]
  - [  -0.0076467287726700,  0.0072686914354563,  0.0009420213755220 ]
  - [  -0.0009850622154772,  0.0002422973630019, -0.0008761940989643 ]
  - [  -0.0000770473852754, -0.0000146949896589, -0.0000928578665480 ]
  - [   0.0000812916550785, -0.0000965202925727, -0.0000157328322530 ]
  - [   0.0010099555365741, -0.0008986318716779,  0.0002427173312753 ]
  - [   0.0000082660262706, -0.0000661026424496, -0.0000599531922489 ]
  - [  -0.0010100754443556,  0.0002429040323477, -0.0008982770959847 ]
  - [  -0.0000085542424131, -0.0000603087682975, -0.0000658079661662 ]
  - [   0.0009849236812443, -0.0008762920042500,  0.0002421131357551 ]
  - [   0.0000780861882959, -0.0000928553927224, -0.0000147009268403 ]
  - [  -0.0000815808452899, -0.0000154937151819, -0.0000965095823631 ]
  - [   0.0076465383172035,  0.0009420677088201,  0.0072687510401011 ]
  - [  -0.0077838730067015,  0.0073472894728184,  0.0008455230272375 ]
  - [  -0.0002116875548381, -0.0000901471648831,  0.0001426005037501 ]
  - [  -0.0000013337703422, -0.0001739364815876, -0.0001740653533489 ]
  - [   0.0001841308549047,  0.0001262103905901, -0.0001232770737261 ]
  - [   0.0077841999009252,  0.0073471986688673,  0.0008453647606075 ]
  - [   0.0002118808915839, -0.0000895861594472,  0.0001429530384485 ]
  - [   0.0000017223210307, -0.0001738742721500, -0.0001734315592330 ]
  - [  -0.0001846124941949,  0.0001263477315661, -0.0001238593831658 ]
  - [  -0.0076463948935270,  0.0009419189300388,  0.0072689149528742 ]
  - [   0.0001510074362159,  0.0001897701295093,  0.0001899120397866 ]
  - [  -0.0004123896360397, -0.0003176609752700, -0.0003174996236339 ]
  - [   0.0004109506262466, -0.0003182191285305, -0.0003176775644533 ]
  - [  -0.0001366381766275,  0.0001883386867121,  0.0001877441536635 ]
  - [   0.0000043323962018,  0.0015167639357969,  0.0015165422810242 ]
  - [  -0.0000956283183768,  0.0000014672841644, -0.0000772396597313 ]
  - [  -0.0000008716015145,  0.0000946414220380,  0.0000929314846871 ]
  - [   0.0000958629752859, -0.0000786203381722,  0.0000010736039258 ]
  - [   0.0000274118501693, -0.0001205968437716,  0.0001031548017636 ]
  - [  -0.0000265424605459,  0.0001034582528519, -0.0001195215882035 ]
  - [  -0.0000541610643268, -0.0000061863684095, -0.0002507257449906 ]
  - [   0.0000542636262253, -0.0002499093534425, -0.0000111925182864 ]
  - [   0.0000259608495981, -0.0000027877977118,  0.0001041768118739 ]
  - [  -0.0000005915353540,  0.0000073830087786,  0.0000073484916356 ]
  - [  -0.0000289354939014,  0.0001028495607898, -0.0000072608236223 ]
  - [  -0.0000003772074706, -0.0004194985376671, -0.0003951491962653 ]
  - [   0.0000000030413503, -0.0027211778797209,  0.0015190930571407 ]
  - [  -0.0000003829045454, -0.0000312956981361, -0.0001466214744141 ]
  - [   0.0000000457512215, -0.0001479070633650, -0.0000331285409629 ]
  - [  -0.0000004021712812,  0.0015134345740080, -0.0026936912909150 ]
  - [  -0.0009850995847955, -0.0008760186610743,  0.0002421964891255 ]
  - [  -0.0000775280641392, -0.0000927129294723, -0.0000154855661094 ]
  - [   0.0000809817574918, -0.0000155901070684, -0.0000962617341429 ]
  - [   0.0010104969842359,  0.0002430197782815, -0.0008984048618004 ]
  - [   0.0000084512867033, -0.0000603017397225, -0.0000657264608890 ]
  - [  -0.0000955623108894, -0.0000773764477344,  0.0000016901030904 ]
  - [  -0.0000004803368938,  0.0000933645133046,  0.0000949218665482 ]
  - [   0.0000965477374848,  0.0000010353032849, -0.0000785103693488 ]
  - [   0.0000275323036476,  0.0001035522509483, -0.0001208889734698 ]
  - [  -0.0000268120129476, -0.0001200835395139,  0.0001029980194289 ]
  - [  -0.0000160620547831,  0.0000018080463633,  0.0000015083933249 ]
  - [   0.0000168165424839,  0.0000004702089882,  0.0000001683367827 ]
  - [  -0.0000111031404231, -0.0000034855183912, -0.0000036693963921 ]
  - [   0.0000007375710993,  0.0000046507557272,  0.0000048911897466 ]
  - [   0.0000107872328954, -0.0000034297627280, -0.0000035294870031 ]
  - [  -0.0000003403984010,  0.0001245131716132,  0.0000976885203272 ]
  - [  -0.0000002543965820,  0.0000266270217253, -0.0000974241847871 ]
  - [  -0.0000000982690835,  0.0000020975567168,  0.0000046280911192 ]
  - [  -0.0000000681466190,  0.0000051719398471, -0.0000017447164282 ]
  - [  -0.0000000782602001, -0.0000888678041520,  0.0000175249733729 ]
  - [  -0.0000545972725376, -0.0002500010596123, -0.0000111217013909 ]
  - [  -0.0000255493068835, -0.0000031982490327,  0.0001033402659232 ]
  - [   0.0000004337780410,  0.0000075704665505,  0.0000077236909419 ]
  - [   0.0000292903569061,  0.0001026292156894, -0.0000075140269473 ]
  - [   0.0000541594199603, -0.0000062971521402, -0.0002505516167730 ]
  - [  -0.0010102568194270, -0.0008979082340375,  0.0002428368024994 ]
  - [  -0.0000080856325440, -0.0000659560901113, -0.0000605859349889 ]
  - [   0.0009851153008640,  0.0002423096448183, -0.0008758617332205 ]
  - [   0.0000777084060246, -0.0000145251397043, -0.0000932513576117 ]
  - [  -0.0000813967490103, -0.0000958824384725, -0.0000157999893418 ]
  - [  -0.0000543081405340, -0.0002503990253899, -0.0000063166080508 ]
  - [   0.0000545502334717, -0.0000116541123134, -0.0002498344983906 ]
  - [   0.0000252779573202,  0.0001034067245200, -0.0000032560201362 ]
  - [  -0.0000005108449841,  0.0000073617588896,  0.0000075188363553 ]
  - [  -0.0000285300266114, -0.0000071933100116,  0.0001030155690387 ]
  - [  -0.0000004894100130,  0.0000975114671746,  0.0001245916064363 ]
  - [  -0.0000000974396244, -0.0000969269312918,  0.0000265395501629 ]
  - [  -0.0000000209547579,  0.0000046998029575,  0.0000019414583221 ]
  - [  -0.0000000717118382, -0.0000023044412956,  0.0000053385738283 ]
  - [  -0.0000003812310752,  0.0000169896811713, -0.0000889569055289 ]
  - [  -0.0000166769605130,  0.0000004754401743,  0.0000003859859135 ]
  - [   0.0000116085202535, -0.0000038661673898, -0.0000038672442315 ]
  - [  -0.0000005388865247,  0.0000046956120059,  0.0000052206451073 ]
  - [  -0.0000106600336949, -0.0000037010213418, -0.0000034507829696 ]
  - [   0.0000158092007041,  0.0000017331913114,  0.0000015704426914 ]
  - [  -0.0000959747412708, -0.0000788495453889,  0.0000011940865079 ]
  - [  -0.0000272786564892, -0.0001205497974297,  0.0001034768065438 ]
  - [   0.0000265645649051,  0.0001031411666190, -0.0001192287309095 ]
  - [   0.0000956320436671,  0.0000013415119611, -0.0000773108913563 ]
  - [   0.0000009109935490,  0.0000952890113695,  0.0000934331328608 ]
  - [   0.0076464358717203,  0.0072688022628427,  0.0009420535061508 ]
  - [  -0.0077838338911533,  0.0008453748887405,  0.0073472512885928 ]
  - [  -0.0002120835415553,  0.0001433497527614, -0.0000897260324564 ]
  - [  -0.0000016226695152, -0.0001740410953062, -0.0001738439314067 ]
  - [   0.0001839781180024, -0.0001233334187418,  0.0001263677841052 ]
  - [   0.0000000371146598, -0.0003949678211939, -0.0004199114628136 ]
  - [  -0.0000001058069756,  0.0015194492880255, -0.0027204821817577 ]
  - [  -0.0000004695175448, -0.0001472126314184, -0.0000312988413498 ]
  - [   0.0000002278247848, -0.0000333820935339, -0.0001480566570535 ]
  - [  -0.0000005064066499, -0.0026935194619000,  0.0015134364366531 ]
  - [  -0.0000543529167771, -0.0000112700290629, -0.0002500370319467 ]
  - [  -0.0000252719764831,  0.0001033649896272, -0.0000036141282180 ]
  - [   0.0000007935668691,  0.0000075445495895,  0.0000070348251029 ]
  - [   0.0000287318398478, -0.0000071619870141,  0.0001027949183481 ]
  - [   0.0000542556517757, -0.0002500066766515, -0.0000061680912040 ]
  - [  -0.0000962019839790,  0.0000009278592188, -0.0000789762125351 ]
  - [  -0.0000276381615549,  0.0001031915890053, -0.0001209349138662 ]
  - [   0.0000267897266895, -0.0001196002122015,  0.0001032613217831 ]
  - [   0.0000956454896368, -0.0000773100764491,  0.0000019450671971 ]
  - [   0.0000009641516954,  0.0000935447169468,  0.0000952882692218 ]
  - [   0.0001367239747196,  0.0001878102775663,  0.0001885114470497 ]
  - [  -0.0000040938612074,  0.0015162021154538,  0.0015160378534347 ]
  - [  -0.0001506098196842,  0.0001898537302623,  0.0001904032105813 ]
  - [   0.0004126660060138, -0.0003177891485393, -0.0003172371070832 ]
  - [  -0.0004111379384995, -0.0003179807681590, -0.0003182553919032 ]

force_constants:
  format: "full"
  shape: [ 125, 125 ]
  elements:
  - # (1, 1)
    - [     7.591278111826723,    -0.000000000000000,     0.000000000000000 ]
    - [    -0.000000000000000,     7.591278111826724,     0.000000000000000 ]
    - [     0.000000000000000,     0.000000000000000,     7.591278111826723 ]
  - # (1, 2)
    - [    -0.126386395944955,    -0.000000000000000,     0.000000000000000 ]
    - [     0.000000000000000,    -1.033660130657620,    -1.091262359962943 ]
    - [     0.000000000000000,    -1.091262359962942,    -1.033660130657620 ]
  - # (1, 3)
    - [    -0.034301581297343,    -0.000000000000000,    -0.000000000000000 ]
    - [     0.000000000000000,     0.125430876791469,     0.141093276980940 ]
    - [    -0.000000000000000,     0.141093276980940,     0.125430876791469 ]
  - # (1, 4)
    - [    -0.034301581297343,    -0.000000000000000,    -0.000000000000000 ]
    - [    -0.000000000000000,     0.125430876791469,     0.141093276980940 ]
    - [    -0.000000000000000,     0.141093276980940,     0.125430876791469 ]
  - # (1, 5)