nqpoint: 614    
npath: 9      
segment_nqpoint:
- 87
- 50
- 101
- 46
- 87
- 50
- 101
- 46
- 46
labels:
- [ '$\Gamma$', '$\mathrm{M}$' ]
- [ '$\mathrm{M}$', '$\mathrm{K}$' ]
- [ '$\mathrm{K}$', '$\Gamma$' ]
- [ '$\Gamma$', '$\mathrm{A}$' ]
- [ '$\mathrm{A}$', '$\mathrm{L}$' ]
- [ '$\mathrm{L}$', '$\mathrm{H}$' ]
- [ '$\mathrm{H}$', '$\mathrm{A}$' ]
- [ '$\mathrm{L}$', '$\mathrm{M}$' ]
- [ '$\mathrm{H}$', '$\mathrm{K}$' ]
reciprocal_lattice:
- [   0.28571429,   0.16495722,   0.00000000 ] # a*
- [   0.00000000,   0.32991444,   0.00000000 ] # b*
- [   0.00000000,   0.00000000,   0.17496355 ] # c*
natom: 2      
lattice:
- [     3.500000000000000,     0.000000000000000,     0.000000000000000 ] # a
- [    -1.750000000000000,     3.031088913245535,     0.000000000000000 ] # b
- [     0.000000000000000,     0.000000000000000,     5.715476066494081 ] # c
points:
- symbol: Fe # 1
  coordinates: [  0.000000000000000,  0.000000000000000,  0.000000000000000 ]
  mass: 55.845000
- symbol: Fe # 2
  coordinates: [  0.333333333333333,  0.666666666666667,  0.500000000000000 ]
  mass: 55.845000

phonon:
- q-position: [    0.0000000,    0.0000000,    0.0000000 ]
  distance:    0.0000000
  band:
  - # 1
    frequency:   -4.1532781566
    eigenvector:
    - # atom 1
      - [  0.00000000000000,  0.00000000000000 ]
      - [ -0.00000000000000,  0.00000000000000 ]
      - [  0.70710678118655,  0.00000000000000 ]
    - # atom 2
      - [ -0.00000000000000,  0.00000000000000 ]
      - [  0.00000000000000,  0.00000000000000 ]
      - [ -0.70710678118655,  0.00000000000000 ]
  - # 2
    frequency:   -0.0000000717
    eigenvector:
    - # atom 1
      - [  0.01733504907190,  0.00000000000000 ]
      - [ -0.70688055121888,  0.00000000000000 ]
      - [  0.00440254269328,  0.00000000000000 ]
    - # atom 2
      - [  0.01733504907190,  0.00000000000000 ]
      - [ -0.70688055121888,  0.00000000000000 ]
      - [  0.00440254269328,  0.00000000000000 ]
  - # 3
    frequency:   -0.0000000240
    eigenvector:
    - # atom 1
      - [ -0.70689035788501,  0.00000000000000 ]
      - [ -0.01731998290593,  0.00000000000000 ]
      - [  0.00245766583124,  0.00000000000000 ]
    - # atom 2
      - [ -0.70689035788502,  0.00000000000000 ]
      - [ -0.01731998290593,  0.00000000000000 ]
      - [  0.00245766583124,  0.00000000000000 ]
  - # 4
    frequency:    0.0000000633
    eigenvector:
    - # atom 1
      - [  0.00234904296989,  0.00000000000000 ]
      - [  0.00446144602453,  0.00000000000000 ]
      - [  0.70708880453342,  0.00000000000000 ]
    - # atom 2
      - [  0.00234904296989,  0.00000000000000 ]
      - [  0.00446144602453,  0.00000000000000 ]
      - [  0.70708880453342,  0.00000000000000 ]
  - # 5
    frequency:    0.4636693906
    eigenvector:
    - # atom 1
      - [  0.10099555471662, -0.00000000000000 ]
      - [ -0.69985705535308,  0.00000000000000 ]
      - [  0.00000000000000,  0.00000000000000 ]
    - # atom 2
      - [ -0.10099555471662,  0.00000000000000 ]
      - [  0.69985705535308,  0.00000000000000 ]
      - [  0.00000000000000,  0.00000000000000 ]
  - # 6
    frequency:    0.4636693906
    eigenvector:
    - # atom 1
      - [  0.69985705535308,  0.00000000000000 ]
      - [  0.10099555471662,  0.00000000000000 ]
      - [ -0.00000000000000,  0.00000000000000 ]
    - # atom 2
      - [ -0.69985705535308,  0.00000000000000 ]
      - [ -0.10099555471662,  0.00000000000000 ]
      - [ -0.00000000000000,  0.00000000000000 ]

- q-position: [    0.0058140,    0.0000000,    0.0000000 ]
  distance:    0.0019181
  band:
  - # 1
    frequency:   -4.1529424121
    eigenvector:
    - # atom 1
      - [  0.00000000000000,  0.00000000000000 ]
      - [  0.00000000000000,  0.00000000000000 ]
      - [ -0.68896809081127, -0.15913192591016 ]
    - # atom 2
      - [ -0.00000000000000, -0.00000000000000 ]
      - [  0.00000000000000, -0.00000000000000 ]
      - [  0.68896815449615,  0.15913165018366 ]
  - # 2
    frequency:   -0.0833636333
    eigenvector:
    - # atom 1
      - [ -0.61237243569568,  0.00000000000000 ]
      - [ -0.35355339059347,  0.00000000000005 ]
      - [  0.00000000000003,  0.00000000000000 ]
    - # atom 2
      - [ -0.59255085602816,  0.15454281937434 ]
      - [ -0.34210939623666,  0.08922533836708 ]
      - [  0.00000000000003,  0.00000000000000 ]
  - # 3
    frequency:   -0.0628848344
    eigenvector:
    - # atom 1
      - [ -0.35355339059347,  0.00000000000000 ]
      - [  0.61237243569568, -0.00000000000008 ]
      - [ -0.00000000000009, -0.00000000000001 ]
    - # atom 2
      - [ -0.34201369119784, -0.08959148973738 ]
      - [  0.59238509003837,  0.15517701215097 ]
      - [ -0.00000000000009, -0.00000000000001 ]
  - # 4
    frequency:    0.0076704554
    eigenvector:
    - # atom 1
      - [  0.00000000000002,  0.00000000000000 ]
      - [ -0.00000000000009, -0.00000000000001 ]
      - [ -0.69795497509381, -0.11339688153475 ]
    - # atom 2
      - [  0.00000000000002,  0.00000000000002 ]
      - [ -0.00000000000009, -0.00000000000002 ]
      - [ -0.69795502047542, -0.11339660221168 ]
  - # 5
    frequency:    0.4646346128
    eigenvector:
    - # atom 1
      - [ -0.61237243569571,  0.00000000000000 ]
      - [ -0.35355339059342,  0.00000000000000 ]
      - [ -0.00000000000000, -0.00000000000000 ]
    - # atom 2
      - [  0.59255085602819, -0.15454281937433 ]
      - [  0.34210939623661, -0.08922533836705 ]
      - [ -0.00000000000000, -0.00000000000000 ]
  - # 6
    frequency:    0.4668016247
    eigenvector:
    - # atom 1
      - [ -0.35355339059342,  0.00000000000000 ]
      - [  0.61237243569571, -0.00000000000001 ]
      - [  0.00000000000000,  0.00000000000000 ]
    - # atom 2
      - [  0.34201369119777,  0.08959148973740 ]
      - [ -0.59238509003839, -0.15517701215103 ]
      - [  0.00000000000000,  0.00000000000000 ]

- q-position: [    0.0116279,    0.0000000,    0.0000000 ]
  distance:    0.0038362
  band:
  - # 1
    frequency:   -4.1519352817
    eigenvector:
    - # atom 1
      - [  0.00000000000000,  0.00000000000000 ]
      - [  0.00000000000000,  0.00000000000000 ]
      - [ -0.70628891896931, -0.03399945501266 ]
    - # atom 2
      - [ -0.00000000000000, -0.00000000000000 ]
      - [  0.00000000000000,  0.00000000000000 ]
      - [  0.70628902787458,  0.03399719258973 ]
  - # 2
    frequency:   -0.1645185223
    eigenvector:
    - # atom 1
      - [  0.61237243569574,  0.00000000000000 ]
      - [  0.35355339059336, -0.00000000000003 ]
      - [ -0.00000000000000, -0.00000000000000 ]
    - # atom 2
      - [  0.54385383611099, -0.28146581488222 ]
      - [  0.31399415867861, -0.16250436398990 ]
      - [ -0.00000000000000, -0.00000000000000 ]
  - # 3
    frequency:   -0.1234200960
    eigenvector:
    - # atom 1
      - [ -0.35355339059336,  0.00000000000000 ]
      - [  0.61237243569574, -0.00000000000005 ]
      - [ -0.00000000000001, -0.00000000000001 ]
    - # atom 2
      - [ -0.31282536448248, -0.16474310709846 ]
      - [  0.54182942517970,  0.28534343169135 ]
      - [ -0.00000000000001, -0.00000000000001 ]
  - # 4
    frequency:    0.0153050514
    eigenvector:
    - # atom 1
      - [  0.00000000000001,  0.00000000000000 ]
      - [ -0.00000000000001,  0.00000000000000 ]
      - [ -0.49976744545829, -0.50023244642875 ]
    - # atom 2
      - [  0.00000000000001,  0.00000000000001 ]
      - [ -0.00000000000002, -0.00000000000001 ]
      - [ -0.49976904782728, -0.50023084554415 ]
  - # 5
    frequency:    0.4667390040
    eigenvector:
    - # atom 1
      - [ -0.61237243569576,  0.00000000000000 ]
      - [ -0.35355339059334,  0.00000000000001 ]
      - [ -0.00000000000000, -0.00000000000000 ]
    - # atom 2
      - [  0.54385383611101, -0.28146581488221 ]
      - [  0.31399415867858, -0.16250436398989 ]
      - [ -0.00000000000000, -0.00000000000000 ]
  - # 6
    frequency:    0.4754622957
    eigenvector:
    - # atom 1
      - [  0.35355339059334,  0.00000000000000 ]
      - [ -0.61237243569576,  0.00000000000002 ]
      - [ -0.00000000000000, -0.00000000000000 ]
    - # atom 2
      - [ -0.31282536448244, -0.16474310709848 ]
      - [  0.54182942517969,  0.28534343169137 ]
      - [ -0.00000000000000, -0.00000000000000 ]

- q-position: [    0.0174419,    0.0000000,    0.0000000 ]
  distance:    0.0057543
  band:
  - # 1
    frequency:   -4.1502570761
    eigenvector:
    - # atom 1
      - [  0.00000000000000,  0.00000000000000 ]
      - [ -0.00000000000000,  0.00000000000000 ]
      - [ -0.70658665722314,  0.02711633887942 ]
    - # atom 2
      - [  0.00000000000000,  0.00000000000000 ]
      - [ -0.00000000000000, -0.00000000000000 ]
      - [  0.70658636377760, -0.02712398428601 ]
  - # 2
    frequency:   -0.2423158784
    eigenvector:
    - # atom 1
      - [  0.61237243569579,  0.00000000000000 ]
      - [  0.35355339059328, -0.00000000000001 ]
      - [  0.00000000000001,  0.00000000000000 ]
    - # atom 2
      - [  0.48602709557198, -0.37252874032732 ]
      - [  0.28060787446194, -0.21507956850886 ]
      - [  0.00000000000001,  0.00000000000000 ]
  - # 3
    frequency:   -0.1802361987
    eigenvector:
    - # atom 1
      - [ -0.35355339059328,  0.00000000000000 ]
      - [  0.61237243569579, -0.00000000000001 ]
      - [  0.00000000000003,  0.00000000000000 ]
    - # atom 2
      - [ -0.27650403579505, -0.22033047494401 ]
      - [  0.47891903849485,  0.38162357705881 ]
      - [  0.00000000000003,  0.00000000000000 ]
  - # 4
    frequency:    0.0228676818
    eigenvector:
    - # atom 1
      - [ -0.00000000000001,  0.00000000000000 ]
      - [  0.00000000000003, -0.00000000000000 ]
      - [ -0.70625652959586,  0.03466575259845 ]
    - # atom 2
      - [ -0.00000000000001, -0.00000000000001 ]
      - [  0.00000000000002,  0.00000000000001 ]
      - [ -0.70625615446417,  0.03467339443255 ]
  - # 5
    frequency:    0.4682374480
    eigenvector:
    - # atom 1
      - [ -0.61237243569579,  0.00000000000000 ]
      - [ -0.35355339059328, -0.00000000000000 ]
      - [ -0.00000000000000,  0.00000000000000 ]
    - # atom 2
      - [  0.48602709557198, -0.37252874032732 ]
      - [  0.28060787446195, -0.21507956850884 ]
      - [ -0.00000000000000,  0.00000000000000 ]
  - # 6
    frequency:    0.4879862027
    eigenvector:
    - # atom 1
      - [  0.35355339059328,  0.00000000000000 ]
      - [ -0.61237243569579, -0.00000000000000 ]
      - [ -0.00000000000000,  0.00000000000000 ]
    - # atom 2
      - [ -0.27650403579505, -0.22033047494401 ]
      - [  0.47891903849485,  0.38162357705882 ]
      - [ -0.00000000000000,  0.00000000000000 ]

- q-position: [    0.0232558,    0.0000000,    0.0000000 ]
  distance:    0.0076724
  band:
  - # 1
    frequency:   -4.1479083144
    eigenvector:
    - # atom 1
      - [  0.00000000000000,  0.00000000000000 ]
      - [  0.00000000000000,  0.00000000000000 ]
      - [ -0.67684381422663, -0.20465202452736 ]
    - # atom 2
      - [ -0.00000000000000, -0.00000000000000 ]
      - [  0.00000000000000, -0.00000000000000 ]
      - [  0.67684906916257,  0.20463464411914 ]
  - # 2
    frequency:   -0.3166650569
    eigenvector:
    - # atom 1
      - [  0.61237243569579,  0.00000000000000 ]
      - [  0.35355339059328, -0.00000000000001 ]
      - [  0.00000000000000,  0.00000000000000 ]
    - # atom 2
      - [  0.43202130535036, -0.43400183377881 ]
      - [  0.24942761693970, -0.25057107556099 ]
      - [  0.00000000000000,  0.00000000000000 ]
  - # 3
    frequency:   -0.2330244276
    eigenvector:
    - # atom 1
      - [ -0.35355339059328,  0.00000000000000 ]
      - [  0.61237243569579, -0.00000000000002 ]
      - [  0.00000000000001,  0.00000000000000 ]
    - # atom 2
      - [ -0.24073525212916, -0.25893346323393 ]
      - [  0.41696568786057,  0.44848591410094 ]
      - [  0.00000000000001,  0.00000000000000 ]
  - # 4
    frequency:    0.0303217374
    eigenvector:
    - # atom 1
      - [ -0.00000000000000,  0.00000000000000 ]
      - [  0.00000000000001, -0.00000000000000 ]
      - [ -0.69404749273179,  0.13527038786339 ]
    - # atom 2
      - [ -0.00000000000000, -0.00000000000000 ]
      - [  0.00000000000001,  0.00000000000000 ]
      - [ -0.69404401896094,  0.13528820992438 ]
  - # 5
    frequency:    0.4674199168
    eigenvector:
    - # atom 1
      - [  0.61237243569580, -0.00000000000000 ]
      - [  0.35355339059327, -0.00000000000000 ]
      - [  0.00000000000000,  0.00000000000000 ]
    - # atom 2
      - [ -0.43202130535036,  0.43400183377881 ]
      - [ -0.24942761693969,  0.25057107556098 ]
      - [  0.00000000000000,  0.00000000000000 ]
  - # 6
    frequency:    0.5026968113
    eigenvector:
    - # atom 1
      - [ -0.35355339059328,  0.00000000000000 ]
      - [  0.61237243569579, -0.00000000000000 ]
      - [  0.00000000000000,  0.00000000000000 ]
    - # atom 2
      - [  0.24073525212914,  0.25893346323394 ]
      - [ -0.41696568786057, -0.44848591410094 ]
      - [  0.00000000000000,  0.00000000000000 ]

- q-position: [    0.0290698,    0.0000000,    0.0000000 ]
  distance:    0.0095905
  band:
  - # 1
    frequency:   -4.1448897267
    eigenvector:
    - # atom 1
      - [  0.00000000000000,  0.00000000000000 ]
      - [  0.00000000000000, -0.00000000000000 ]
      - [ -0.69724201131916, -0.11770122196310 ]
    - # atom 2
      - [  0.00000000000000, -0.00000000000000 ]
      - [  0.00000000000000,  0.00000000000000 ]
      - [  0.69724792262023,  0.11766619906231 ]
  - # 2
    frequency:   -0.3879931111
    eigenvector:
    - # atom 1
      - [  0.61237243569579,  0.00000000000000 ]
      - [  0.35355339059329, -0.00000000000001 ]
      - [ -0.00000000000000,  0.00000000000000 ]
    - # atom 2
      - [  0.38635913216745, -0.47510695742203 ]
      - [  0.22306454896076, -0.27430312976146 ]
      - [ -0.00000000000000,  0.00000000000000 ]
  - # 3
    frequency:   -0.2820791286
    eigenvector:
    - # atom 1
      - [ -0.35355339059328,  0.00000000000000 ]
      - [  0.61237243569579, -0.00000000000001 ]
      - [ -0.00000000000000,  0.00000000000000 ]
    - # atom 2
      - [ -0.20882555944579, -0.28529263173478 ]
      - [  0.36169647887907,  0.49414133318969 ]
      - [ -0.00000000000000,  0.00000000000000 ]
  - # 4
    frequency:    0.0376298349
    eigenvector:
    - # atom 1
      - [  0.00000000000000,  0.00000000000000 ]
      - [ -0.00000000000000,  0.00000000000000 ]
      - [ -0.35032248401651,  0.61422647060551 ]
    - # atom 2
      - [ -0.00000000000000,  0.00000000000000 ]
      - [ -0.00000000000000, -0.00000000000000 ]
      - [ -0.35029163072693,  0.61424406667274 ]
  - # 5
    frequency:    0.4629990834
    eigenvector:
    - # atom 1
      - [  0.61237243569579, -0.00000000000000 ]
      - [  0.35355339059328,  0.00000000000000 ]
      - [ -0.00000000000000, -0.00000000000000 ]
    - # atom 2
      - [ -0.38635913216745,  0.47510695742202 ]
      - [ -0.22306454896075,  0.27430312976146 ]
      - [ -0.00000000000000, -0.00000000000000 ]
  - # 6
    frequency:    0.5183573426
    eigenvector:
    - # atom 1
      - [ -0.35355339059328,  0.00000000000000 ]
      - [  0.61237243569579,  0.00000000000001 ]
      - [ -0.00000000000000, -0.00000000000000 ]
    - # atom 2
      - [  0.20882555944577,  0.28529263173478 ]
      - [ -0.36169647887906, -0.49414133318970 ]
      - [ -0.00000000000000, -0.00000000000000 ]

- q-position: [    0.0348837,    0.0000000,    0.0000000 ]
  distance:    0.0115086
  band:
  - # 1
    frequency:   -4.1412022571
    eigenvector:
    - # atom 1
      - [  0.00000000000000,  0.00000000000000 ]
      - [ -0.00000000000000,  0.00000000000000 ]
      - [ -0.68680699349246,  0.16821460605384 ]
    - # atom 2
      - [ -0.00000000000000, -0.00000000000000 ]
      - [  0.00000000000000, -0.00000000000000 ]
      - [  0.68679236273167, -0.16827433105928 ]
  - # 2
    frequency:   -0.4568432604
    eigenvector:
    - # atom 1
      - [ -0.61237243569579,  0.00000000000000 ]
      - [ -0.35355339059328,  0.00000000000001 ]
      - [  0.00000000000000, -0.00000000000000 ]
    - # atom 2
      - [ -0.34918913639895,  0.50305759811473 ]
      - [ -0.20160444189803,  0.29044043968942 ]
      - [  0.00000000000000, -0.00000000000000 ]
  - # 3
    frequency:   -0.3278969352
    eigenvector:
    - # atom 1
      - [ -0.35355339059328,  0.00000000000000 ]
      - [  0.61237243569579, -0.00000000000001 ]
      - [ -0.00000000000000,  0.00000000000000 ]
    - # atom 2
      - [ -0.18144941893235, -0.30344045275657 ]
      - [  0.31427961259466,  0.52557428124609 ]
      - [ -0.00000000000000,  0.00000000000000 ]
  - # 4
    frequency:    0.0447535176
    eigenvector:
    - # atom 1
      - [  0.00000000000000,  0.00000000000000 ]
      - [ -0.00000000000000,  0.00000000000000 ]
      - [ -0.35328127114222,  0.61252946334045 ]
    - # atom 2
      - [  0.00000000000000,  0.00000000000000 ]
      - [ -0.00000000000000, -0.00000000000000 ]
      - [ -0.35322800343687,  0.61256018282941 ]
  - # 5
    frequency:    0.4540277857
    eigenvector:
    - # atom 1
      - [ -0.61237243569579,  0.00000000000000 ]
      - [ -0.35355339059328,  0.00000000000000 ]
      - [  0.00000000000000,  0.00000000000000 ]
    - # atom 2
      - [  0.34918913639895, -0.50305759811473 ]
      - [  0.20160444189803, -0.29044043968941 ]
      - [  0.00000000000000,  0.00000000000000 ]
  - # 6
    frequency:    0.5341835746
    eigenvector:
    - # atom 1
      - [ -0.35355339059328,  0.00000000000000 ]
      - [  0.61237243569579,  0.00000000000000 ]
      - [ -0.00000000000000, -0.00000000000000 ]
    - # atom 2
      - [  0.18144941893234,  0.30344045275657 ]
      - [ -0.31427961259466, -0.52557428124610 ]
      - [ -0.00000000000000, -0.00000000000000 ]

- q-position: [    0.0406977,    0.0000000,    0.0000000 ]
  distance:    0.0134268
  band:
  - # 1
    frequency:   -4.1368470684
    eigenvector:
    - # atom 1
      - [  0.00000000000000,  0.00000000000000 ]
      - [  0.00000000000000,  0.00000000000000 ]
      - [ -0.63295285714383, -0.31523115428754 ]
    - # atom 2
      - [  0.00000000000000, -0.00000000000000 ]
      - [  0.00000000000000,  0.00000000000000 ]
      - [  0.63299647858992,  0.31514355156461 ]
  - # 2
    frequency:   -0.5237072943
    eigenvector:
    - # atom 1
      - [ -0.61237243569579,  0.00000000000000 ]
      - [ -0.35355339059328,  0.00000000000000 ]
      - [ -0.00000000000000, -0.00000000000000 ]
    - # atom 2
      - [ -0.31920693848445,  0.52259633602178 ]
      - [ -0.18429421186120,  0.30172113527968 ]
      - [ -0.00000000000000, -0.00000000000000 ]
  - # 3
    frequency:   -0.3709774307
    eigenvector:
    - # atom 1
      - [ -0.35355339059328,  0.00000000000000 ]
      - [  0.61237243569579, -0.00000000000001 ]
      - [  0.00000000000000, -0.00000000000000 ]
    - # atom 2
      - [ -0.15821988530909, -0.31617474265472 ]
      - [  0.27404488012305,  0.54763071834800 ]
      - [  0.00000000000000, -0.00000000000000 ]
  - # 4
    frequency:    0.0516529182
    eigenvector:
    - # atom 1
      - [ -0.00000000000000,  0.00000000000000 ]
      - [ -0.00000000000000,  0.00000000000000 ]
      - [ -0.52498500064608,  0.47369900685629 ]
    - # atom 2
      - [ -0.00000000000000, -0.00000000000000 ]
      - [  0.00000000000000,  0.00000000000000 ]
      - [ -0.52491943640277,  0.47377165943796 ]
  - # 5
    frequency:    0.4396931925
    eigenvector:
    - # atom 1
      - [  0.61237243569579, -0.00000000000000 ]
      - [  0.35355339059328, -0.00000000000000 ]
      - [ -0.00000000000000,  0.00000000000000 ]
    - # atom 2
      - [ -0.31920693848445,  0.52259633602178 ]
      - [ -0.18429421186120,  0.30172113527968 ]
      - [ -0.00000000000000,  0.00000000000000 ]
  - # 6
    frequency:    0.5497155269
    eigenvector:
    - # atom 1
      - [  0.35355339059328,  0.00000000000000 ]
      - [ -0.61237243569579, -0.00000000000000 ]
      - [  0.00000000000000, -0.00000000000000 ]
    - # atom 2
      - [ -0.15821988530908, -0.31617474265472 ]
      - [  0.27404488012304,  0.54763071834800 ]
      - [  0.00000000000000, -0.00000000000000 ]

- q-position: [    0.0465116,    0.0000000,    0.0000000 ]
  distance:    0.0153449
  band:
  - # 1
    frequency:   -4.1318255464
    eigenvector:
    - # atom 1
      - [  0.00000000000000,  0.00000000000000 ]
      - [  0.00000000000000, -0.00000000000000 ]
      - [ -0.68990267432750, -0.15502999695465 ]
    - # atom 2
      - [  0.00000000000000, -0.00000000000000 ]
      - [  0.00000000000000,  0.00000000000000 ]
      - [  0.68993476929990,  0.15488710117725 ]
  - # 2
    frequency:   -0.5889838599
    eigenvector:
    - # atom 1
      - [  0.61237243569579,  0.00000000000000 ]
      - [  0.35355339059328, -0.00000000000000 ]
      - [ -0.00000000000000,  0.00000000000000 ]
    - # atom 2
      - [  0.29490152212952, -0.53668714559387 ]
      - [  0.17026147318591, -0.30985646797923 ]
      - [ -0.00000000000000,  0.00000000000000 ]
  - # 3
    frequency:   -0.4117539818
    eigenvector:
    - # atom 1
      - [ -0.35355339059328,  0.00000000000000 ]
      - [  0.61237243569579, -0.00000000000000 ]
      - [ -0.00000000000001,  0.00000000000000 ]
    - # atom 2
      - [ -0.13846855494120, -0.32530978972742 ]
      - [  0.23983457240879,  0.56345308400744 ]
      - [ -0.00000000000001,  0.00000000000000 ]
  - # 4
    frequency:    0.0582863683
    eigenvector:
    - # atom 1
      - [  0.00000000000000,  0.00000000000000 ]
      - [ -0.00000000000001,  0.00000000000000 ]
      - [ -0.69401331979733,  0.13544560511102 ]
    - # atom 2
      - [ -0.00000000000000,  0.00000000000000 ]
      - [ -0.00000000000000, -0.00000000000000 ]
      - [ -0.69398525145477,  0.13558934605368 ]
  - # 5
    frequency:    0.4191088666
    eigenvector:
    - # atom 1
      - [ -0.61237243569580,  0.00000000000000 ]
      - [ -0.35355339059327, -0.00000000000000 ]
      - [ -0.00000000000000,  0.00000000000000 ]
    - # atom 2
      - [  0.29490152212952, -0.53668714559387 ]
      - [  0.17026147318591, -0.30985646797923 ]
      - [ -0.00000000000000,  0.00000000000000 ]
  - # 6
    frequency:    0.5646969727
    eigenvector:
    - # atom 1
      - [  0.35355339059327, -0.00000000000000 ]
      - [ -0.61237243569579, -0.00000000000001 ]
      - [  0.00000000000000,  0.00000000000000 ]
    - # atom 2
      - [ -0.13846855494119, -0.32530978972742 ]
      - [  0.23983457240879,  0.56345308400744 ]
      - [  0.00000000000000,  0.00000000000000 ]

- q-position: [    0.0523256,    0.0000000,    0.0000000 ]
  distance:    0.0172630
  band:
  - # 1
    frequency:   -4.1261393063
    eigenvector:
    - # atom 1
      - [  0.00000000000000,  0.00000000000000 ]
      - [ -0.00000000000000, -0.00000000000000 ]
      - [  0.25645433481758, -0.65896219478303 ]
    - # atom 2
      - [  0.00000000000000,  0.00000000000000 ]
      - [ -0.00000000000000, -0.00000000000000 ]
      - [ -0.25625942716207,  0.65903801558830 ]
  - # 2
    frequency:   -0.6529830467
    eigenvector:
    - # atom 1
      - [ -0.61237243569579,  0.00000000000000 ]
      - [ -0.35355339059328,  0.00000000000000 ]
      - [ -0.00000000000000,  0.00000000000000 ]
    - # atom 2
      - [ -0.27495068792856,  0.54717649730924 ]
      - [ -0.15874285368943,  0.31591249801573 ]
      - [ -0.00000000000000,  0.00000000000000 ]
  - # 3
    frequency:   -0.4505818146
    eigenvector:
    - # atom 1
      - [ -0.35355339059327,  0.00000000000000 ]
      - [  0.61237243569579, -0.00000000000000 ]
      - [  0.00000000000000, -0.00000000000000 ]
    - # atom 2
      - [ -0.12154232607616, -0.33200521527831 ]
      - [  0.21051748403401,  0.57504990123988 ]
      - [  0.00000000000000, -0.00000000000000 ]
  - # 4
    frequency:    0.0646099339
    eigenvector:
    - # atom 1
      - [  0.00000000000001,  0.00000000000000 ]
      - [ -0.00000000000000,  0.00000000000000 ]
      - [  0.01785544759548, -0.70688130756950 ]
    - # atom 2
      - [ -0.00000000000000,  0.00000000000001 ]
      - [ -0.00000000000000, -0.00000000000000 ]
      - [  0.01764637768951, -0.70688655762749 ]
  - # 5
    frequency:    0.3910780345
    eigenvector:
    - # atom 1
      - [  0.61237243569579,  0.00000000000000 ]
      - [  0.35355339059328,  0.00000000000000 ]
      - [  0.00000000000000,  0.00000000000000 ]
    - # atom 2
      - [ -0.27495068792856,  0.54717649730924 ]
      - [ -0.15874285368943,  0.31591249801573 ]
      - [  0.00000000000000,  0.00000000000000 ]
  - # 6
    frequency:    0.5789934366
    eigenvector:
    - # atom 1
      - [ -0.35355339059328,  0.00000000000000 ]
      - [  0.61237243569579,  0.00000000000000 ]
      - [  0.00000000000000,  0.00000000000000 ]
    - # atom 2
      - [  0.12154232607616,  0.33200521527831 ]
      - [ -0.21051748403401, -0.57504990123987 ]
      - [  0.00000000000000,  0.00000000000000 ]

- q-position: [    0.0581395,    0.0000000,    0.0000000 ]
  distance:    0.0191811
  band:
  - # 1
    frequency:   -4.1197901991
    eigenvector:
    - # atom 1
      - [  0.00000000000000,  0.00000000000000 ]
      - [ -0.00000000000000,  0.00000000000000 ]
      - [ -0.70218295412179, -0.08330125413701 ]
    - # atom 2
      - [  0.00000000000000, -0.00000000000000 ]
      - [  0.00000000000000,  0.00000000000000 ]
      - [  0.70221680240676,  0.08301543481559 ]
  - # 2
    frequency:   -0.7159428305
    eigenvector:
    - # atom 1
      - [ -0.61237243569579,  0.00000000000000 ]
      - [ -0.35355339059328,  0.00000000000000 ]
      - [  0.00000000000000,  0.00000000000000 ]
    - # atom 2
      - [ -0.25829467677748,  0.55523315818530 ]
      - [ -0.14912650116773,  0.32056401334128 ]
      - [  0.00000000000000,  0.00000000000000 ]
  - # 3
    frequency:   -0.4877458881
    eigenvector:
    - # atom 1
      - [ -0.35355339059328,  0.00000000000000 ]
      - [  0.61237243569579,  0.00000000000000 ]
      - [ -0.00000000000000, -0.00000000000000 ]
    - # atom 2
      - [ -0.10688946873334, -0.33700837003538 ]
      - [  0.18513799064018,  0.58371561947726 ]
      - [ -0.00000000000000, -0.00000000000000 ]
  - # 4
    frequency:    0.0705768528
    eigenvector:
    - # atom 1
      - [ -0.00000000000000,  0.00000000000000 ]
      - [ -0.00000000000001,  0.00000000000001 ]
      - [ -0.43735113389991,  0.55562935998421 ]
    - # atom 2
      - [  0.00000000000000, -0.00000000000000 ]
      - [ -0.00000000000000, -0.00000000000000 ]
      - [ -0.43712493756280,  0.55580733079073 ]
  - # 5
    frequency:    0.3537049200
    eigenvector:
    - # atom 1
      - [  0.61237243569579,  0.00000000000000 ]
      - [  0.35355339059328,  0.00000000000000 ]
      - [ -0.00000000000000,  0.00000000000000 ]
    - # atom 2
      - [ -0.25829467677748,  0.55523315818530 ]
      - [ -0.14912650116773,  0.32056401334128 ]
      - [ -0.00000000000000,  0.00000000000000 ]
  - # 6
    frequency:    0.5925418987
    eigenvector:
    - # atom 1
      - [  0.35355339059328,  0.00000000000000 ]
      - [ -0.61237243569579, -0.00000000000000 ]
      - [  0.00000000000000, -0.00000000000000 ]
    - # atom 2
      - [ -0.10688946873333, -0.33700837003538 ]
      - [  0.18513799064018,  0.58371561947726 ]
      - [  0.00000000000000, -0.00000000000000 ]

- q-position: [    0.0639535,    0.0000000,    0.0000000 ]
  distance:    0.0210992
  band:
  - # 1
    frequency:   -4.1127803187
    eigenvector:
    - # atom 1
      - [  0.00000000000000,  0.00000000000000 ]
      - [  0.00000000000000,  0.00000000000000 ]
      - [ -0.57928918523925,  0.40549234254772 ]
    - # atom 2
      - [ -0.00000000000000, -0.00000000000000 ]
      - [  0.00000000000000,  0.00000000000000 ]
      - [  0.57906862548839, -0.40580725347754 ]
  - # 2
    frequency:   -0.7780456330
    eigenvector:
    - # atom 1
      - [ -0.61237243569579,  0.00000000000000 ]
      - [ -0.35355339059328,  0.00000000000000 ]
      - [ -0.00000000000000, -0.00000000000000 ]
    - # atom 2
      - [ -0.24411007727995,  0.56161398680088 ]
      - [ -0.14093701882948,  0.32424798646015 ]
      - [ -0.00000000000000, -0.00000000000000 ]
  - # 3
    frequency:   -0.5234733907
    eigenvector:
    - # atom 1
      - [ -0.35355339059327,  0.00000000000000 ]
      - [  0.61237243569579, -0.00000000000000 ]
      - [  0.00000000000000, -0.00000000000000 ]
    - # atom 2
      - [ -0.09406823099352, -0.34080957720955 ]
      - [  0.16293095545890,  0.59029950343301 ]
      - [  0.00000000000000, -0.00000000000000 ]
  - # 4
    frequency:    0.0761368357
    eigenvector:
    - # atom 1
      - [  0.00000000000000,  0.00000000000000 ]
      - [  0.00000000000000,  0.00000000000000 ]
      - [ -0.53784259806333, -0.45904829779500 ]
    - # atom 2
      - [ -0.00000000000000,  0.00000000000000 ]
      - [ -0.00000000000000,  0.00000000000000 ]
      - [ -0.53809211210587, -0.45875579439332 ]
  - # 5
    frequency:    0.3034838594
    eigenvector:
    - # atom 1
      - [  0.61237243569580,  0.00000000000000 ]
      - [  0.35355339059327,  0.00000000000000 ]
      - [  0.00000000000000,  0.00000000000000 ]
    - # atom 2
      - [ -0.24411007727995,  0.56161398680088 ]