# Tetrahedron method
       -0.8445337927        0.0000000000
       -0.7938617596        0.0000000000
       -0.7431897264        0.0000000000
       -0.6925176932        0.0000000000
       -0.6418456600        0.0000000000
       -0.5911736269        0.0000000000
       -0.5405015937        0.0000000000
       -0.4898295605        0.0000000000
       -0.4391575274        0.0000000000
       -0.3884854942        0.0000000000
       -0.3378134610        0.0000000000
       -0.2871414279        0.0000000000
       -0.2364693947        0.0000000000
       -0.1857973615        0.0000000000
       -0.1351253284        0.0000000000
       -0.0844532952        0.0000000000
       -0.0337812620        0.0000000000
        0.0168907711        0.0000015952
        0.0675628043        0.0000270900
        0.1182348375        0.0000877615
        0.1689068707        0.0001888978
        0.2195789038        0.0003357867
        0.2702509370        0.0005337162
        0.3209229702        0.0009587292
        0.3715950033        0.0015419595
        0.4222670365        0.0019802072
        0.4729390697        0.0023846043
        0.5236111028        0.0028472146
        0.5742831360        0.0035470877
        0.6249551692        0.0043415948
        0.6756272023        0.0050559361
        0.7262992355        0.0057512215
        0.7769712687        0.0065532084
        0.8276433019        0.0074903302
        0.8783153350        0.0084794696
        0.9289873682        0.0094412222
        0.9796594014        0.0104237181
        1.0303314345        0.0115216094
        1.0810034677        0.0127511718
        1.1316755009        0.0140512690
        1.1823475340        0.0153235826
        1.2330195672        0.0165672836
        1.2836916004        0.0179002794
        1.3343636335        0.0193703165
        1.3850356667        0.0209444246
        1.4357076999        0.0225349002
        1.4863797331        0.0241294201
        1.5370517662        0.0257703540
        1.5877237994        0.0275043836
        1.6383958326        0.0293415563
        1.6890678657        0.0312233238
        1.7397398989        0.0330909691
        1.7904119321        0.0350211451
        1.8410839652        0.0370540905
        1.8917559984        0.0392010782
        1.9424280316        0.0414263958
        1.9931000647        0.0436304411
        2.0437720979        0.0458827882
        2.0944441311        0.0482171813
        2.1451161642        0.0506702362
        2.1957881974        0.0532121342
        2.2464602306        0.0557707028
        2.2971322638        0.0583779668
        2.3478042969        0.0610738373
        2.3984763301        0.0639086028
        2.4491483633        0.0668376927
        2.4998203964        0.0697990009
        2.5504924296        0.0728002656
        2.6011644628        0.0759010750
        2.6518364959        0.0791237431
        2.7025085291        0.0824471615
        2.7531805623        0.0858349478
        2.8038525954        0.0893337295
        2.8545246286        0.0929623685
        2.9051966618        0.0967049644
        2.9558686950        0.1005366604
        3.0065407281        0.1044203635
        3.0572127613        0.1084533228
        3.1078847945        0.1126580086
        3.1585568276        0.1170161117
        3.2092288608        0.1214524612
        3.2599008940        0.1259816286
        3.3105729271        0.1307405556
        3.3612449603        0.1357200508
        3.4119169935        0.1408258028
        3.4625890266        0.1459941615
        3.5132610598        0.1513673555
        3.5639330930        0.1570588408
        3.6146051261        0.1630105501
        3.6652771593        0.1690615686
        3.7159491925        0.1753042209
        3.7666212257        0.1818782644
        3.8172932588        0.1887906785
        3.8679652920        0.1959147058
        3.9186373252        0.2033587565
        3.9693093583        0.2112356791
        4.0199813915        0.2194711691
        4.0706534247        0.2279900986
        4.1213254578        0.2371473900
        4.1719974910        0.2468811971
        4.2226695242        0.2569141381
        4.2733415573        0.2677455264
        4.3240135905        0.2794628651
        4.3746856237        0.2916411490
        4.4253576569        0.3052047982
        4.4760296900        0.3198661240
        4.5267017232        0.3356702227
        4.5773737564        0.3538541113
        4.6280457895        0.3738652394
        4.6787178227        0.3982549055
        4.7293898559        0.4287046164
        4.7800618890        0.4763395993
        4.8307339222        0.5175532789
        4.8814059554        0.5228183910
        4.9320779885        0.5299956540
        4.9827500217        0.5357164722
        5.0334220549        0.5418407355
        5.0840940881        0.5488495498
        5.1347661212        0.5555189637
        5.1854381544        0.5629058055
        5.2361101876        0.5703287174
        5.2867822207        0.5780709145
        5.3374542539        0.5863409910
        5.3881262871        0.5946800516
        5.4387983202        0.6039562592
        5.4894703534        0.6130009001
        5.5401423866        0.6229163532
        5.5908144197        0.6332108536
        5.6414864529        0.6447912585
        5.6921584861        0.6554576605
        5.7428305192        0.6697972889
        5.7935025524        0.6831335315
        5.8441745856        0.6977686561
        5.8948466188        0.6343124000
        5.9455186519        0.6092186516
        5.9961906851        0.5933499413
        6.0468627183        0.5841441143
        6.0975347514        0.5793032844
        6.1482067846        0.5770213251
        6.1988788178        0.5784416827
        6.2495508509        0.5812121309
        6.3002228841        0.5872622554
        6.3508949173        0.5948967035
        6.4015669504        0.6059979472
        6.4522389836        0.6197994655
        6.5029110168        0.6369977361
        6.5535830500        0.6581485642
        6.6042550831        0.6840406837
        6.6549271163        0.7169830766
        6.7055991495        0.7612015756
        6.7562711826        0.8235670370
        6.8069432158        0.9260593343
        6.8576152490        1.2083921412
        6.9082872821        1.0995679002
        6.9589593153        0.8723257003
        7.0096313485        0.7684262102
        7.0603033816        0.7065794594
        7.1109754148        0.6621562153
        7.1616474480        0.6301360457
        7.2123194811        0.6063000963
        7.2629915143        0.5891963129
        7.3136635475        0.5740955661
        7.3643355807        0.5644152399
        7.4150076138        0.5570477404
        7.4656796470        0.5568603532
        7.5163516802        0.5550286238
        7.5670237133        0.5552113392
        7.6176957465        0.5631090299
        7.6683677797        0.5724251274
        7.7190398128        0.5821458939
        7.7697118460        0.5275477111
        7.8203838792        0.6910468201
        7.8710559123        0.9290523318
        7.9217279455        1.1846677358
        7.9723999787        1.3408048714
        8.0230720119        1.6294189930
        8.0737440450        1.7144979014
        8.1244160782        1.0838616680
        8.1750881114        0.8496018839
        8.2257601445        0.6879382902
        8.2764321777        0.5583496362
        8.3271042109        0.4394559997
        8.3777762440        0.3194106335
        8.4284482772        0.1534659107
        8.4791203104        0.0000000000
        8.5297923435        0.0000000000
        8.5804643767        0.0000000000
        8.6311364099        0.0000000000
        8.6818084431        0.0000000000
        8.7324804762        0.0000000000
        8.7831525094        0.0000000000
        8.8338245426        0.0000000000
        8.8844965757        0.0000000000
        8.9351686089        0.0000000000
        8.9858406421        0.0000000000
        9.0365126752        0.0000000000
        9.0871847084        0.0000000000
        9.1378567416        0.0000000000
        9.1885287747        0.0000000000
        9.2392008079        0.0000000000
        9.2898728411        0.0000000000
