nqpoint: 427    
npath: 6      
segment_nqpoint:
- 95
- 34
- 101
- 82
- 67
- 48
labels:
- [ '$\Gamma$', '$\mathrm{X}$' ]
- [ '$\mathrm{X}$', '$\mathrm{U}$' ]
- [ '$\mathrm{K}$', '$\Gamma$' ]
- [ '$\Gamma$', '$\mathrm{L}$' ]
- [ '$\mathrm{L}$', '$\mathrm{W}$' ]
- [ '$\mathrm{W}$', '$\mathrm{X}$' ]
reciprocal_lattice:
- [  -0.28571429,   0.28571429,   0.28571429 ] # a*
- [   0.28571429,  -0.28571429,   0.28571429 ] # b*
- [   0.28571429,   0.28571429,  -0.28571429 ] # c*
natom: 1      
lattice:
- [     0.000000000000000,     1.750000000000000,     1.750000000000000 ] # a
- [     1.750000000000000,     0.000000000000000,     1.750000000000000 ] # b
- [     1.750000000000000,     1.750000000000000,     0.000000000000000 ] # c
points:
- symbol: Fe # 1
  coordinates: [  0.000000000000000,  0.000000000000000,  0.000000000000000 ]
  mass: 55.845000

phonon:
- q-position: [    0.0000000,    0.0000000,    0.0000000 ]
  distance:    0.0000000
  band:
  - # 1
    frequency:    0.0000000905
    eigenvector:
    - # atom 1
      - [  0.47196433782719,  0.00000000000000 ]
      - [  0.87631893459815,  0.00000000000000 ]
      - [  0.09651315290731,  0.00000000000000 ]
  - # 2
    frequency:    0.0000001018
    eigenvector:
    - # atom 1
      - [  0.83415212198978,  0.00000000000000 ]
      - [ -0.40843431844032,  0.00000000000000 ]
      - [ -0.37063680996380,  0.00000000000000 ]
  - # 3
    frequency:    0.0000001061
    eigenvector:
    - # atom 1
      - [  0.28537677060211, -0.00000000000000 ]
      - [ -0.25543400788650,  0.00000000000000 ]
      - [  0.92374973148345, -0.00000000000000 ]

- q-position: [    0.0053191,    0.0000000,    0.0053191 ]
  distance:    0.0030395
  band:
  - # 1
    frequency:   -0.0591085101
    eigenvector:
    - # atom 1
      - [ -0.00000000000013,  0.00000000000000 ]
      - [ -0.99941161607940,  0.03429900356522 ]
      - [  0.00000000000008, -0.00000000000000 ]
  - # 2
    frequency:    0.0959428902
    eigenvector:
    - # atom 1
      - [ -0.79288797744871,  0.00000000000000 ]
      - [  0.00000000000015, -0.00000000000000 ]
      - [  0.60936404113082,  0.00202992462940 ]
  - # 3
    frequency:    0.0959428902
    eigenvector:
    - # atom 1
      - [  0.60936742218245,  0.00000000000000 ]
      - [ -0.00000000000002,  0.00000000000000 ]
      - [  0.79288357814036,  0.00264126826475 ]

- q-position: [    0.0106383,    0.0000000,    0.0106383 ]
  distance:    0.0060790
  band:
  - # 1
    frequency:   -0.1178118855
    eigenvector:
    - # atom 1
      - [ -0.00000000000002,  0.00000000000000 ]
      - [  0.99835482666937,  0.05733794612628 ]
      - [ -0.00000000000004, -0.00000000000000 ]
  - # 2
    frequency:    0.1918910366
    eigenvector:
    - # atom 1
      - [ -0.19170657029463,  0.00000000000000 ]
      - [  0.00000000000003,  0.00000000000000 ]
      - [  0.98141531148836,  0.00851923013445 ]
  - # 3
    frequency:    0.1918910366
    eigenvector:
    - # atom 1
      - [ -0.98145228661707,  0.00000000000000 ]
      - [ -0.00000000000003, -0.00000000000000 ]
      - [ -0.19169934796176, -0.00166405683995 ]

- q-position: [    0.0159574,    0.0000000,    0.0159574 ]
  distance:    0.0091185
  band:
  - # 1
    frequency:   -0.1757020955
    eigenvector:
    - # atom 1
      - [  0.00000000000002,  0.00000000000000 ]
      - [  0.99972329827915, -0.02352290113598 ]
      - [ -0.00000000000000,  0.00000000000000 ]
  - # 2
    frequency:    0.2878495089
    eigenvector:
    - # atom 1
      - [  0.39958022509812,  0.00000000000000 ]
      - [ -0.00000000000001, -0.00000000000000 ]
      - [ -0.91669822935933, -0.00000000000000 ]
  - # 3
    frequency:    0.2878495089
    eigenvector:
    - # atom 1
      - [ -0.91669822935933,  0.00000000000000 ]
      - [  0.00000000000002, -0.00000000000000 ]
      - [ -0.39958022509812, -0.00000000000000 ]

- q-position: [    0.0212766,    0.0000000,    0.0212766 ]
  distance:    0.0121581
  band:
  - # 1
    frequency:   -0.2323651664
    eigenvector:
    - # atom 1
      - [  0.00000000000000,  0.00000000000000 ]
      - [  0.70710678118602, -0.70710678118708 ]
      - [ -0.00000000000001,  0.00000000000001 ]
  - # 2
    frequency:    0.3838230054
    eigenvector:
    - # atom 1
      - [  0.49311418356584, -0.00000000000000 ]
      - [  0.00000000000001,  0.00000000000000 ]
      - [  0.86996314964127,  0.00158752399570 ]
  - # 3
    frequency:    0.3838230054
    eigenvector:
    - # atom 1
      - [ -0.86996459811086,  0.00000000000000 ]
      - [  0.00000000000001,  0.00000000000000 ]
      - [  0.49311336254289,  0.00089984190245 ]

- q-position: [    0.0265957,    0.0000000,    0.0265957 ]
  distance:    0.0151976
  band:
  - # 1
    frequency:   -0.2873778187
    eigenvector:
    - # atom 1
      - [ -0.00000000000000,  0.00000000000000 ]
      - [  1.00000000000000, -0.00000000000000 ]
      - [ -0.00000000000000,  0.00000000000000 ]
  - # 2
    frequency:    0.4798156699
    eigenvector:
    - # atom 1
      - [ -0.99321068770585,  0.00000000000000 ]
      - [ -0.00000000000000,  0.00000000000000 ]
      - [  0.11628875505468, -0.00307494304231 ]
  - # 3
    frequency:    0.4798156699
    eigenvector:
    - # atom 1
      - [ -0.11632940224587,  0.00000000000000 ]
      - [ -0.00000000000000, -0.00000000000000 ]
      - [ -0.99286364539381,  0.02625360600801 ]

- q-position: [    0.0319149,    0.0000000,    0.0319149 ]
  distance:    0.0182371
  band:
  - # 1
    frequency:   -0.3403035922
    eigenvector:
    - # atom 1
      - [  0.00000000000000,  0.00000000000000 ]
      - [  0.99875233887784,  0.04993761694389 ]
      - [  0.00000000000000,  0.00000000000000 ]
  - # 2
    frequency:    0.5758309138
    eigenvector:
    - # atom 1
      - [ -0.99997777197992,  0.00000000000000 ]
      - [  0.00000000000000,  0.00000000000000 ]
      - [ -0.00596359261390, -0.00298179630695 ]
  - # 3
    frequency:    0.5758309138
    eigenvector:
    - # atom 1
      - [  0.00666749923740,  0.00000000000000 ]
      - [  0.00000000000000,  0.00000000000000 ]
      - [ -0.89440730965435, -0.44720365482718 ]

- q-position: [    0.0372340,    0.0000000,    0.0372340 ]
  distance:    0.0212766
  band:
  - # 1
    frequency:   -0.3906882049
    eigenvector:
    - # atom 1
      - [  0.00000000000000,  0.00000000000000 ]
      - [  0.99691901028942, -0.07843779014967 ]
      - [ -0.00000000000000,  0.00000000000000 ]
  - # 2
    frequency:    0.6718712417
    eigenvector:
    - # atom 1
      - [ -0.99782546035372,  0.00000000000000 ]
      - [  0.00000000000000, -0.00000000000000 ]
      - [  0.06586882357275, -0.00237671012891 ]
  - # 3
    frequency:    0.6718712417
    eigenvector:
    - # atom 1
      - [ -0.06591168841636,  0.00000000000000 ]
      - [ -0.00000000000000, -0.00000000000000 ]
      - [ -0.99717653702414,  0.03598059669675 ]

- q-position: [    0.0425532,    0.0000000,    0.0425532 ]
  distance:    0.0243161
  band:
  - # 1
    frequency:   -0.4380538087
    eigenvector:
    - # atom 1
      - [ -0.00000000000000,  0.00000000000000 ]
      - [  0.98893635286830,  0.14834045293024 ]
      - [ -0.00000000000000,  0.00000000000000 ]
  - # 2
    frequency:    0.7679380845
    eigenvector:
    - # atom 1
      - [ -0.08356464544666,  0.00000000000000 ]
      - [  0.00000000000000,  0.00000000000000 ]
      - [  0.99641299966012, -0.01334481695973 ]
  - # 3
    frequency:    0.7679380845
    eigenvector:
    - # atom 1
      - [ -0.99650235826684,  0.00000000000000 ]
      - [ -0.00000000000000, -0.00000000000000 ]
      - [ -0.08355715201704,  0.00111906900023 ]

- q-position: [    0.0478723,    0.0000000,    0.0478723 ]
  distance:    0.0273556
  band:
  - # 1
    frequency:   -0.4818916610
    eigenvector:
    - # atom 1
      - [ -0.00000000000000,  0.00000000000000 ]
      - [ -0.99998855357214, -0.00478463422762 ]
      - [  0.00000000000000, -0.00000000000000 ]
  - # 2
    frequency:    0.8640316396
    eigenvector:
    - # atom 1
      - [  0.97458745931567,  0.00000000000000 ]
      - [ -0.00000000000000, -0.00000000000000 ]
      - [ -0.22370827740065,  0.01157111779659 ]
  - # 3
    frequency:    0.8640316396
    eigenvector:
    - # atom 1
      - [ -0.22400733056002,  0.00000000000000 ]
      - [ -0.00000000000000, -0.00000000000000 ]
      - [ -0.97328637038225,  0.05034239846805 ]

- q-position: [    0.0531915,    0.0000000,    0.0531915 ]
  distance:    0.0303951
  band:
  - # 1
    frequency:   -0.5216525112
    eigenvector:
    - # atom 1
      - [ -0.00000000000000,  0.00000000000000 ]
      - [ -0.99995194502508,  0.00980345044142 ]
      - [  0.00000000000000, -0.00000000000000 ]
  - # 2
    frequency:    0.9601507191
    eigenvector:
    - # atom 1
      - [ -0.97237051917441,  0.00000000000000 ]
      - [  0.00000000000000,  0.00000000000000 ]
      - [  0.23336375320666, -0.00607718107309 ]
  - # 3
    frequency:    0.9601507191
    eigenvector:
    - # atom 1
      - [  0.23344286975723,  0.00000000000000 ]
      - [  0.00000000000000,  0.00000000000000 ]
      - [  0.97204097130071, -0.02531356696096 ]

- q-position: [    0.0585106,    0.0000000,    0.0585106 ]
  distance:    0.0334347
  band:
  - # 1
    frequency:   -0.5567336374
    eigenvector:
    - # atom 1
      - [ -0.00000000000000,  0.00000000000000 ]
      - [  1.00000000000000, -0.00000000000000 ]
      - [ -0.00000000000000,  0.00000000000000 ]
  - # 2
    frequency:    1.0562926082
    eigenvector:
    - # atom 1
      - [ -0.99738215389768,  0.00000000000000 ]
      - [ -0.00000000000000,  0.00000000000000 ]
      - [  0.07217418008346,  0.00444148800514 ]
  - # 3
    frequency:    1.0562926082
    eigenvector:
    - # atom 1
      - [ -0.07231071211391,  0.00000000000000 ]
      - [ -0.00000000000000, -0.00000000000000 ]
      - [ -0.99549896665451, -0.06126147487105 ]

- q-position: [    0.0638298,    0.0000000,    0.0638298 ]
  distance:    0.0364742
  band:
  - # 1
    frequency:   -0.5864608523
    eigenvector:
    - # atom 1
      - [  0.00000000000000,  0.00000000000000 ]
      - [ -0.99498200277639, -0.10005405614511 ]
      - [ -0.00000000000000, -0.00000000000000 ]
  - # 2
    frequency:    1.1524529337
    eigenvector:
    - # atom 1
      - [  0.26278369529206,  0.00000000000000 ]
      - [  0.00000000000000, -0.00000000000000 ]
      - [ -0.96454831133745,  0.02431634398330 ]
  - # 3
    frequency:    1.1524529337
    eigenvector:
    - # atom 1
      - [  0.96485477119028,  0.00000000000000 ]
      - [  0.00000000000000,  0.00000000000000 ]
      - [  0.26270022920474, -0.00662269485390 ]

- q-position: [    0.0691489,    0.0000000,    0.0691489 ]
  distance:    0.0395137
  band:
  - # 1
    frequency:   -0.6100627246
    eigenvector:
    - # atom 1
      - [ -0.00000000000000,  0.00000000000000 ]
      - [ -0.99993318187885,  0.01155992117779 ]
      - [  0.00000000000000, -0.00000000000000 ]
  - # 2
    frequency:    1.2486255435
    eigenvector:
    - # atom 1
      - [  0.99970793180935,  0.00000000000000 ]
      - [ -0.00000000000000,  0.00000000000000 ]
      - [ -0.02415996360521,  0.00058926740501 ]
  - # 3
    frequency:    1.2486255435
    eigenvector:
    - # atom 1
      - [ -0.02416714872465,  0.00000000000000 ]
      - [ -0.00000000000000, -0.00000000000000 ]
      - [ -0.99941070928700,  0.02437587095822 ]

- q-position: [    0.0744681,    0.0000000,    0.0744681 ]
  distance:    0.0425532
  band:
  - # 1
    frequency:   -0.6266322788
    eigenvector:
    - # atom 1
      - [ -0.00000000000000,  0.00000000000000 ]
      - [ -0.99975317783161, -0.02221673728515 ]
      - [  0.00000000000000, -0.00000000000000 ]
  - # 2
    frequency:    1.3448023988
    eigenvector:
    - # atom 1
      - [ -0.98229498986092,  0.00000000000000 ]
      - [  0.00000000000000,  0.00000000000000 ]
      - [  0.18734074008110,  0.00000000000000 ]
  - # 3
    frequency:    1.3448023988
    eigenvector:
    - # atom 1
      - [  0.18734074008110,  0.00000000000000 ]
      - [  0.00000000000000,  0.00000000000000 ]
      - [  0.98229498986092,  0.00000000000000 ]

- q-position: [    0.0797872,    0.0000000,    0.0797872 ]
  distance:    0.0455927
  band:
  - # 1
    frequency:   -0.6350675825
    eigenvector:
    - # atom 1
      - [ -0.00000000000000,  0.00000000000000 ]
      - [ -0.99984059934544,  0.01785429641688 ]
      - [  0.00000000000000, -0.00000000000000 ]
  - # 2
    frequency:    1.4409734781
    eigenvector:
    - # atom 1
      - [ -0.99895591836935,  0.00000000000000 ]
      - [  0.00000000000000,  0.00000000000000 ]
      - [  0.04556600100590,  0.00328826811383 ]
  - # 3
    frequency:    1.4409734781
    eigenvector:
    - # atom 1
      - [  0.04568449578203,  0.00000000000000 ]
      - [  0.00000000000000,  0.00000000000000 ]
      - [  0.99636486300401,  0.07190261897967 ]

- q-position: [    0.0851064,    0.0000000,    0.0851064 ]
  distance:    0.0486322
  band:
  - # 1
    frequency:   -0.6339745663
    eigenvector:
    - # atom 1
      - [ -0.00000000000000,  0.00000000000000 ]
      - [ -0.99963496987285, -0.02701716134792 ]
      - [ -0.00000000000000, -0.00000000000000 ]
  - # 2
    frequency:    1.5371266952
    eigenvector:
    - # atom 1
      - [ -0.97962740593442,  0.00000000000000 ]
      - [  0.00000000000000,  0.00000000000000 ]
      - [  0.20066790371154,  0.00790809472755 ]
  - # 3
    frequency:    1.5371266952
    eigenvector:
    - # atom 1
      - [  0.20082366778397,  0.00000000000000 ]
      - [ -0.00000000000000,  0.00000000000000 ]
      - [  0.97886758137843,  0.03857606232033 ]

- q-position: [    0.0904255,    0.0000000,    0.0904255 ]
  distance:    0.0516717
  band:
  - # 1
    frequency:   -0.6214969956
    eigenvector:
    - # atom 1
      - [ -0.00000000000000,  0.00000000000000 ]
      - [ -0.99995830205986,  0.00913203928822 ]
      - [  0.00000000000000, -0.00000000000000 ]
  - # 2
    frequency:    1.6332478307
    eigenvector:
    - # atom 1
      - [  0.99382608335072,  0.00000000000000 ]
      - [ -0.00000000000000, -0.00000000000000 ]
      - [ -0.11038461911092,  0.01117818927706 ]
  - # 3
    frequency:    1.6332478307
    eigenvector:
    - # atom 1
      - [ -0.11094915976147,  0.00000000000000 ]
      - [ -0.00000000000000, -0.00000000000000 ]
      - [ -0.98876921563909,  0.10012852816598 ]

- q-position: [    0.0957447,    0.0000000,    0.0957447 ]
  distance:    0.0547112
  band:
  - # 1
    frequency:   -0.5949912748
    eigenvector:
    - # atom 1
      - [ -0.00000000000000,  0.00000000000000 ]
      - [ -0.99902465763620, -0.04415578597287 ]
      - [  0.00000000000000, -0.00000000000000 ]
  - # 2
    frequency:    1.7293204770
    eigenvector:
    - # atom 1
      - [  0.63014484976888, -0.00000000000000 ]
      - [ -0.00000000000000, -0.00000000000000 ]
      - [ -0.77647760322482, -0.00000000000000 ]
  - # 3
    frequency:    1.7293204770
    eigenvector:
    - # atom 1
      - [ -0.77647760322482,  0.00000000000000 ]
      - [  0.00000000000000, -0.00000000000000 ]
      - [ -0.63014484976888, -0.00000000000000 ]

- q-position: [    0.1010638,    0.0000000,    0.1010638 ]
  distance:    0.0577508
  band:
  - # 1
    frequency:   -0.5503220698
    eigenvector:
    - # atom 1
      - [ -0.00000000000000,  0.00000000000000 ]
      - [ -0.99965391935285, -0.02630668208823 ]
      - [  0.00000000000000, -0.00000000000000 ]
  - # 2
    frequency:    1.8253259987
    eigenvector:
    - # atom 1
      - [  0.43334971289339, -0.00000000000000 ]
      - [ -0.00000000000000, -0.00000000000000 ]
      - [ -0.90091543586301,  0.02365171788662 ]
  - # 3
    frequency:    1.8253259987
    eigenvector:
    - # atom 1
      - [ -0.90122584646426,  0.00000000000000 ]
      - [  0.00000000000000, -0.00000000000000 ]
      - [ -0.43320045358679,  0.01137280427077 ]

- q-position: [    0.1063830,    0.0000000,    0.1063830 ]
  distance:    0.0607903
  band:
  - # 1
    frequency:   -0.4800191022
    eigenvector:
    - # atom 1
      - [ -0.00000000000000,  0.00000000000000 ]
      - [ -0.94071839121720, -0.33918860303043 ]
      - [  0.00000000000000,  0.00000000000000 ]
  - # 2
    frequency:    1.9212435063
    eigenvector:
    - # atom 1
      - [ -0.97874526358585,  0.00000000000000 ]
      - [  0.00000000000000,  0.00000000000000 ]
      - [  0.20507834813660, -0.00076166517414 ]
  - # 3
    frequency:    1.9212435063
    eigenvector:
    - # atom 1
      - [  0.20507976255173,  0.00000000000000 ]
      - [  0.00000000000000,  0.00000000000000 ]
      - [  0.97873851327518, -0.00363505483111 ]

- q-position: [    0.1117021,    0.0000000,    0.1117021 ]
  distance:    0.0638298
  band:
  - # 1
    frequency:   -0.3665252697
    eigenvector:
    - # atom 1
      - [ -0.00000000000000,  0.00000000000000 ]
      - [ -0.98650433234798,  0.16373515889593 ]
      - [  0.00000000000000, -0.00000000000000 ]
  - # 2
    frequency:    2.0170498455
    eigenvector:
    - # atom 1
      - [ -0.98003769369878,  0.00000000000000 ]
      - [  0.00000000000000, -0.00000000000000 ]
      - [  0.19870763506207, -0.00643387112281 ]
  - # 3
    frequency:    2.0170498455
    eigenvector:
    - # atom 1
      - [  0.19881176758327,  0.00000000000000 ]
      - [  0.00000000000000,  0.00000000000000 ]
      - [  0.97952437500965, -0.03171560865536 ]

- q-position: [    0.1170213,    0.0000000,    0.1170213 ]
  distance:    0.0668693
  band:
  - # 1
    frequency:   -0.1107489835
    eigenvector:
    - # atom 1
      - [ -0.00000000000000,  0.00000000000000 ]
      - [ -0.75790055651550, -0.65237009927916 ]
      - [  0.00000000000000, -0.00000000000000 ]
  - # 2
    frequency:    2.1127196007
    eigenvector:
    - # atom 1
      - [ -0.98122942510010,  0.00000000000000 ]
      - [  0.00000000000000,  0.00000000000000 ]
      - [  0.19273210036792, -0.00656907950128 ]
  - # 3
    frequency:    2.1127196007
    eigenvector:
    - # atom 1
      - [  0.19284401810199,  0.00000000000000 ]
      - [  0.00000000000000,  0.00000000000000 ]
      - [  0.98065996499992, -0.03342480708460 ]

- q-position: [    0.1223404,    0.0000000,    0.1223404 ]
  distance:    0.0699088
  band:
  - # 1
    frequency:    0.3716710188
    eigenvector:
    - # atom 1
      - [ -0.00000000000000,  0.00000000000000 ]
      - [ -0.99964478190583, -0.02665164175879 ]
      - [  0.00000000000000, -0.00000000000000 ]
  - # 2
    frequency:    2.2082251124
    eigenvector:
    - # atom 1
      - [ -0.94070941363816,  0.00000000000000 ]
      - [  0.00000000000000,  0.00000000000000 ]
      - [  0.33921033517926, -0.00146546924878 ]
  - # 3
    frequency:    2.2082251124
    eigenvector:
    - # atom 1
      - [  0.33921350075217,  0.00000000000000 ]
      - [  0.00000000000000,  0.00000000000000 ]
      - [  0.94070063484772, -0.00406405026531 ]

- q-position: [    0.1276596,    0.0000000,    0.1276596 ]
  distance:    0.0729483
  band:
  - # 1
    frequency:    0.5649461883
    eigenvector:
    - # atom 1
      - [  0.00000000000000,  0.00000000000000 ]
      - [  0.99996418761241,  0.00846306638551 ]
      - [ -0.00000000000000,  0.00000000000000 ]
  - # 2
    frequency:    2.3035365098
    eigenvector:
    - # atom 1
      - [ -0.92452820297856,  0.00000000000000 ]
      - [  0.00000000000000,  0.00000000000000 ]
      - [  0.38108127088034,  0.00496657643287 ]
  - # 3
    frequency:    2.3035365098
    eigenvector:
    - # atom 1
      - [ -0.38111363383805,  0.00000000000000 ]
      - [ -0.00000000000000, -0.00000000000000 ]
      - [ -0.92444969498390, -0.01204821758328 ]

- q-position: [    0.1329787,    0.0000000,    0.1329787 ]
  distance:    0.0759878
  band:
  - # 1
    frequency:    0.7300988904
    eigenvector:
    - # atom 1
      - [ -0.00000000000000,  0.00000000000000 ]
      - [ -0.51170596827147, -0.85916063808543 ]
      - [ -0.00000000000000, -0.00000000000000 ]
  - # 2
    frequency:    2.3986217565
    eigenvector:
    - # atom 1
      - [  1.00000000000000,  0.00000000000000 ]
      - [ -0.00000000000000, -0.00000000000000 ]
      - [  0.00000000000000,  0.00000000000000 ]
  - # 3
    frequency:    2.3986217565
    eigenvector:
    - # atom 1
      - [ -0.00000000000000,  0.00000000000000 ]
      - [  0.00000000000000, -0.00000000000000 ]
      - [  0.99425844021550,  0.10700539266893 ]

- q-position: [    0.1382979,    0.0000000,    0.1382979 ]
  distance:    0.0790274
  band:
  - # 1
    frequency:    0.8842761928
    eigenvector:
    - # atom 1
      - [ -0.00000000000000, -0.00000000000000 ]
      - [  0.98758030633511,  0.15711504873513 ]
      - [  0.00000000000000,  0.00000000000000 ]
  - # 2
    frequency:    2.4934467105
    eigenvector:
    - # atom 1
      - [ -0.99880542457431,  0.00000000000000 ]
      - [ -0.00000000000000, -0.00000000000000 ]
      - [  0.04885946092739,  0.00069059308731 ]
  - # 3
    frequency:    2.4934467105
    eigenvector:
    - # atom 1
      - [ -0.04886434120018,  0.00000000000000 ]
      - [  0.00000000000000, -0.00000000000000 ]
      - [ -0.99870566997179, -0.01411598120101 ]

- q-position: [    0.1436170,    0.0000000,    0.1436170 ]
  distance:    0.0820669
  band:
  - # 1
    frequency:    1.0334134315
    eigenvector:
    - # atom 1
      - [ -0.00000000000000,  0.00000000000000 ]
      - [ -0.99995399681425,  0.00959188486153 ]
      - [  0.00000000000000, -0.00000000000000 ]
  - # 2
    frequency:    2.5879751969
    eigenvector:
    - # atom 1
      - [ -0.94922738738552,  0.00000000000000 ]
      - [  0.00000000000000,  0.00000000000000 ]
      - [  0.31458966996841,  0.00084058696050 ]
  - # 3
    frequency:    2.5879751969
    eigenvector:
    - # atom 1
      - [  0.31459079299507,  0.00000000000000 ]
      - [ -0.00000000000000,  0.00000000000000 ]
      - [  0.94922399883222,  0.00253633667023 ]

- q-position: [    0.1489362,    0.0000000,    0.1489362 ]
  distance:    0.0851064
  band:
  - # 1
    frequency:    1.1802630605
    eigenvector:
    - # atom 1
      - [ -0.00000000000000,  0.00000000000000 ]
      - [ -0.99960068381302,  0.02825726314666 ]
      - [ -0.00000000000000, -0.00000000000000 ]
  - # 2
    frequency:    2.6821690933
    eigenvector:
    - # atom 1
      - [ -0.98787622461614,  0.00000000000000 ]
      - [  0.00000000000000,  0.00000000000000 ]
      - [  0.15409843577663, -0.01882118299562 ]
  - # 3
    frequency:    2.6821690933
    eigenvector:
    - # atom 1
      - [  0.15524356617315,  0.00000000000000 ]
      - [ -0.00000000000000,  0.00000000000000 ]
      - [  0.98058930689905, -0.11976663290370 ]

- q-position: [    0.1542553,    0.0000000,    0.1542553 ]
  distance:    0.0881459
  band:
  - # 1
    frequency:    1.3262894796
    eigenvector:
    - # atom 1
      - [ -0.00000000000000,  0.00000000000000 ]
      - [ -0.99966717975531, -0.02579786270336 ]
      - [  0.00000000000000, -0.00000000000000 ]
  - # 2
    frequency:    2.7759884271
    eigenvector:
    - # atom 1
      - [ -0.97221702224834,  0.00000000000000 ]
      - [  0.00000000000000,  0.00000000000000 ]
      - [  0.23399263091530, -0.00644285091381 ]
  - # 3
    frequency:    2.7759884271
    eigenvector:
    - # atom 1
      - [  0.23408131418497,  0.00000000000000 ]
      - [ -0.00000000000000,  0.00000000000000 ]
      - [  0.97184869133454, -0.02675928812185 ]

- q-position: [    0.1595745,    0.0000000,    0.1595745 ]
  distance:    0.0911854
  band:
  - # 1
    frequency:    1.4723290142
    eigenvector:
    - # atom 1
      - [ -0.00000000000000,  0.00000000000000 ]
      - [ -0.99984154371533, -0.01780133312253 ]
      - [ -0.00000000000000, -0.00000000000000 ]
  - # 2
    frequency:    2.8693914852
    eigenvector:
    - # atom 1
      - [ -0.86488340741539,  0.00000000000000 ]
      - [  0.00000000000000,  0.00000000000000 ]
      - [  0.50195802489362, -0.00385134034445 ]
  - # 3
    frequency:    2.8693914852
    eigenvector:
    - # atom 1
      - [  0.50197279963914,  0.00000000000000 ]
      - [ -0.00000000000000,  0.00000000000000 ]
      - [  0.86485795099174, -0.00663573875441 ]

- q-position: [    0.1648936,    0.0000000,    0.1648936 ]
  distance:    0.0942249
  band:
  - # 1
    frequency:    1.6188731454
    eigenvector:
    - # atom 1
      - [ -0.00000000000000,  0.00000000000000 ]
      - [ -0.99997030140362, -0.00770690020350 ]
      - [  0.00000000000000, -0.00000000000000 ]
  - # 2
    frequency:    2.9623349328
    eigenvector:
    - # atom 1
      - [ -0.70710678118655,  0.00000000000000 ]
      - [  0.00000000000000,  0.00000000000000 ]
      - [  0.70698095027868, -0.01333926321281 ]
  - # 3
    frequency:    2.9623349328
    eigenvector:
    - # atom 1
      - [  0.70710678118655,  0.00000000000000 ]
      - [  0.00000000000000,  0.00000000000000 ]
      - [  0.70698095027868, -0.01333926321281 ]

- q-position: [    0.1702128,    0.0000000,    0.1702128 ]
  distance:    0.0972644
  band:
  - # 1
    frequency:    1.7662075959
    eigenvector:
    - # atom 1
      - [ -0.00000000000000,  0.00000000000000 ]
      - [ -0.97014250014533,  0.24253562503633 ]
      - [  0.00000000000000, -0.00000000000000 ]
  - # 2
    frequency:    3.0547739438
    eigenvector:
    - # atom 1
      - [ -0.70710678118655,  0.00000000000000 ]
      - [  0.00000000000000,  0.00000000000000 ]
      - [  0.70664215011410, -0.02562950803523 ]
  - # 3
    frequency:    3.0547739438
    eigenvector:
    - # atom 1
      - [  0.70710678118655,  0.00000000000000 ]
      - [ -0.00000000000000,  0.00000000000000 ]
      - [  0.70664215011410, -0.02562950803523 ]

- q-position: [    0.1755319,    0.0000000,    0.1755319 ]
  distance:    0.1003040
  band:
  - # 1
    frequency:    1.9144874905
    eigenvector:
    - # atom 1
      - [ -0.00000000000000,  0.00000000000000 ]
      - [  0.99693837781255, -0.07819124531863 ]
      - [ -0.00000000000000,  0.00000000000000 ]
  - # 2
    frequency:    3.1466623393
    eigenvector:
    - # atom 1
      - [ -0.88941618597935,  0.00000000000000 ]
      - [  0.00000000000000,  0.00000000000000 ]
      - [  0.45707716234000, -0.00439497271481 ]
  - # 3
    frequency:    3.1466623393
    eigenvector:
    - # atom 1
      - [ -0.45709829152815,  0.00000000000000 ]
      - [ -0.00000000000000, -0.00000000000000 ]
      - [ -0.88937507306713,  0.00855168339488 ]

- q-position: [    0.1808511,    0.0000000,    0.1808511 ]
  distance:    0.1033435
  band:
  - # 1
    frequency:    2.0637810081
    eigenvector:
    - # atom 1
      - [ -0.00000000000000,  0.00000000000000 ]
      - [ -0.99745869983073, -0.07124704998791 ]
      - [  0.00000000000000, -0.00000000000000 ]
  - # 2
    frequency:    3.2379527349
    eigenvector:
    - # atom 1
      - [ -0.93083678073741,  0.00000000000000 ]
      - [  0.00000000000000,  0.00000000000000 ]
      - [  0.36540498087282, -0.00469974251926 ]
  - # 3
    frequency:    3.2379527349
    eigenvector:
    - # atom 1
      - [  0.36543520304757,  0.00000000000000 ]
      - [  0.00000000000000,  0.00000000000000 ]
      - [  0.93075979879476, -0.01197118712276 ]

- q-position: [    0.1861702,    0.0000000,    0.1861702 ]
  distance:    0.1063830
  band:
  - # 1
    frequency:    2.2140962176
    eigenvector:
    - # atom 1
      - [ -0.00000000000000,  0.00000000000000 ]
      - [ -0.99994460294154, -0.01052573266254 ]
      - [ -0.00000000000000, -0.00000000000000 ]
  - # 2
    frequency:    3.3285966955
    eigenvector:
    - # atom 1
      - [ -0.97131833088938,  0.00000000000000 ]
      - [  0.00000000000000,  0.00000000000000 ]
      - [  0.23776726806906, -0.00272512628159 ]
  - # 3
    frequency:    3.3285966955
    eigenvector:
    - # atom 1
      - [  0.23778288432575,  0.00000000000000 ]
      - [ -0.00000000000000,  0.00000000000000 ]
      - [  0.97125454010633, -0.01113185719320 ]

- q-position: [    0.1914894,    0.0000000,    0.1914894 ]
  distance:    0.1094225
  band:
  - # 1
    frequency:    2.3653983580
    eigenvector:
    - # atom 1
      - [ -0.00000000000000,  0.00000000000000 ]
      - [ -0.99999303861134, -0.00373131730825 ]
      - [ -0.00000000000000, -0.00000000000000 ]
  - # 2
    frequency:    3.4185448969
    eigenvector:
    - # atom 1
      - [ -0.81781671280089,  0.00000000000000 ]
      - [  0.00000000000000,  0.00000000000000 ]
      - [  0.57481058186805,  0.02772398304830 ]
  - # 3
    frequency:    3.4185448969
    eigenvector:
    - # atom 1
      - [  0.57547877829121,  0.00000000000000 ]
      - [ -0.00000000000000,  0.00000000000000 ]
      - [  0.81686713442735,  0.03939873638717 ]

- q-position: [    0.1968085,    0.0000000,    0.1968085 ]
  distance:    0.1124620
  band:
  - # 1
    frequency:    2.5176214047
    eigenvector:
    - # atom 1
      - [ -0.00000000000000,  0.00000000000000 ]
      - [ -0.99873132173333, -0.05035620109580 ]
      - [ -0.00000000000000, -0.00000000000000 ]
  - # 2
    frequency:    3.5077472922
    eigenvector:
    - # atom 1
      - [ -0.96040014411848,  0.00000000000000 ]
      - [  0.00000000000000,  0.00000000000000 ]