# Tetrahedron method
       -1.5589874381        0.0000000000
       -1.5035992054        0.0000000000
       -1.4482109728        0.0000000000
       -1.3928227401        0.0000000000
       -1.3374345074        0.0000000000
       -1.2820462747        0.0000000000
       -1.2266580420        0.0000000000
       -1.1712698093        0.0000000000
       -1.1158815766        0.0000000000
       -1.0604933439        0.0000000000
       -1.0051051113        0.0000000000
       -0.9497168786        0.0000000000
       -0.8943286459        0.0000000000
       -0.8389404132        0.0000000000
       -0.7835521805        0.0000000000
       -0.7281639478        0.0000000000
       -0.6727757151        0.0000000000
       -0.6173874824        0.0005413333
       -0.5619992498        0.0058727141
       -0.5066110171        0.0064025376
       -0.4512227844        0.0078433277
       -0.3958345517        0.0081855125
       -0.3404463190        0.0065312567
       -0.2850580863        0.0058384666
       -0.2296698536        0.0057679779
       -0.1742816210        0.0057767935
       -0.1188933883        0.0061209300
       -0.0635051556        0.0065211844
       -0.0081169229        0.0069796564
        0.0472713098        0.0074949872
        0.1026595425        0.0080605570
        0.1580477752        0.0085710546
        0.2134360079        0.0089287980
        0.2688242405        0.0097433024
        0.3242124732        0.0120195292
        0.3796007059        0.0156503388
        0.4349889386        0.0197508913
        0.4903771713        0.0220536469
        0.5457654040        0.0240951619
        0.6011536367        0.0267734345
        0.6565418694        0.0310666871
        0.7119301020        0.0334220328
        0.7673183347        0.0368843401
        0.8227065674        0.0392850066
        0.8780948001        0.0428978096
        0.9334830328        0.0459588503
        0.9888712655        0.0492261746
        1.0442594982        0.0523405869
        1.0996477309        0.0556653794
        1.1550359635        0.0592131353
        1.2104241962        0.0623867839
        1.2658124289        0.0658779455
        1.3212006616        0.0693539485
        1.3765888943        0.0729629378
        1.4319771270        0.0768152558
        1.4873653597        0.0802933044
        1.5427535923        0.0839397696
        1.5981418250        0.0878380515
        1.6535300577        0.0918920424
        1.7089182904        0.0957373893
        1.7643065231        0.0997816296
        1.8196947558        0.1038172893
        1.8750829885        0.1079961384
        1.9304712212        0.1123617946
        1.9858594538        0.1168423273
        2.0412476865        0.1211356653
        2.0966359192        0.1256036381
        2.1520241519        0.1303228310
        2.2074123846        0.1350768827
        2.2628006173        0.1399454915
        2.3181888500        0.1449387674
        2.3735770827        0.1499632581
        2.4289653153        0.1550299137
        2.4843535480        0.1604895897
        2.5397417807        0.1661190615
        2.5951300134        0.1717013898
        2.6505182461        0.1775336865
        2.7059064788        0.1835845605
        2.7612947115        0.1898093950
        2.8166829442        0.1961108078
        2.8720711768        0.2026092838
        2.9274594095        0.2095334667
        2.9828476422        0.2166734723
        3.0382358749        0.2240621105
        3.0936241076        0.2316961636
        3.1490123403        0.2395845986
        3.2044005730        0.2477458618
        3.2597888056        0.2564027439
        3.3151770383        0.2656147413
        3.3705652710        0.2750442513
        3.4259535037        0.2849269562
        3.4813417364        0.2955593595
        3.5367299691        0.3067513156
        3.5921182018        0.3183944399
        3.6475064345        0.3307476498
        3.7028946671        0.3442322863
        3.7582828998        0.3588920296
        3.8136711325        0.3745969532
        3.8690593652        0.3911496749
        3.9244475979        0.4102115714
        3.9798358306        0.4310644579
        4.0352240633        0.4540467978
        4.0906122960        0.4819764710
        4.1460005286        0.5141271993
        4.2013887613        0.5574812525
        4.2567769940        0.6272775146
        4.3121652267        0.7007326931
        4.3675534594        0.6918963010
        4.4229416921        0.6933534398
        4.4783299248        0.6978863644
        4.5337181575        0.7043130699
        4.5891063901        0.7037782896
        4.6444946228        0.7118806730
        4.6998828555        0.7182935248
        4.7552710882        0.7253647171
        4.8106593209        0.7357046405
        4.8660475536        0.7472775416
        4.9214357863        0.7650869119
        4.9768240189        0.7171075934
        5.0322122516        0.6605244842
        5.0876004843        0.6305233373
        5.1429887170        0.6080376131
        5.1983769497        0.5902860955
        5.2537651824        0.5770671245
        5.3091534151        0.5652882237
        5.3645416478        0.5548002822
        5.4199298804        0.5480091464
        5.4753181131        0.5400962940
        5.5307063458        0.5327727996
        5.5860945785        0.5293637186
        5.6414828112        0.5246979640
        5.6968710439        0.5204143369
        5.7522592766        0.5192959683
        5.8076475093        0.5168306262
        5.8630357419        0.5159661668
        5.9184239746        0.5152537074
        5.9738122073        0.5179603760
        6.0292004400        0.5186405727
        6.0845886727        0.5254266333
        6.1399769054        0.5365804866
        6.1953651381        0.5819861717
        6.2507533707        0.5504979810
        6.3061416034        0.5105951637
        6.3615298361        0.4886973023
        6.4169180688        0.4671923472
        6.4723063015        0.4508706625
        6.5276945342        0.4362509163
        6.5830827669        0.4224503807
        6.6384709996        0.4064152316
        6.6938592322        0.3949449859
        6.7492474649        0.3812449434
        6.8046356976        0.3662575337
        6.8600239303        0.3531617499
        6.9154121630        0.3390174489
        6.9708003957        0.3247665608
        7.0261886284        0.3007462054
        7.0815768611        0.2835631667
        7.1369650937        0.2846129548
        7.1923533264        0.3098370141
        7.2477415591        0.3629348980
        7.3031297918        0.3731422206
        7.3585180245        0.3968537944
        7.4139062572        0.4844051431
        7.4692944899        0.5356433268
        7.5246827226        0.5840167557
        7.5800709552        0.6297741876
        7.6354591879        0.6721142165
        7.6908474206        0.7141587728
        7.7462356533        0.7520134417
        7.8016238860        0.7927287804
        7.8570121187        0.8331287571
        7.9124003514        0.8745984990
        7.9677885840        0.8973991502
        8.0231768167        0.6780006218
        8.0785650494        0.5643487758
        8.1339532821        0.4837659226
        8.1893415148        0.4181558898
        8.2447297475        0.3606222973
        8.3001179802        0.3066276432
        8.3555062129        0.2524731491
        8.4108944455        0.1975142609
        8.4662826782        0.1189990972
        8.5216709109        0.0871019435
        8.5770591436        0.0440974740
        8.6324473763        0.0000000000
        8.6878356090        0.0000000000
        8.7432238417        0.0000000000
        8.7986120744        0.0000000000
        8.8540003070        0.0000000000
        8.9093885397        0.0000000000
        8.9647767724        0.0000000000
        9.0201650051        0.0000000000
        9.0755532378        0.0000000000
        9.1309414705        0.0000000000
        9.1863297032        0.0000000000
        9.2417179359        0.0000000000
        9.2971061685        0.0000000000
        9.3524944012        0.0000000000
        9.4078826339        0.0000000000
        9.4632708666        0.0000000000
        9.5186590993        0.0000000000
