# Tetrahedron method
       -4.6418757601        0.0000000000
       -4.6125599039        0.0000000000
       -4.5832440477        0.0000000000
       -4.5539281915        0.0000000000
       -4.5246123353        0.0000000000
       -4.4952964791        0.0000000000
       -4.4659806229        0.0000000000
       -4.4366647667        0.0000000000
       -4.4073489104        0.0000000000
       -4.3780330542        0.0000000000
       -4.3487171980        0.0000000000
       -4.3194013418        0.0000000000
       -4.2900854856        0.0000000000
       -4.2607696294        0.0000000000
       -4.2314537732        0.0000000000
       -4.2021379170        0.0000000000
       -4.1728220608        0.0000000000
       -4.1435062046        0.0108062916
       -4.1141903483        0.0458705953
       -4.0848744921        0.0604402429
       -4.0555586359        0.0747357412
       -4.0262427797        0.0894528329
       -3.9969269235        0.1820797133
       -3.9676110673        0.3933354915
       -3.9382952111        0.5433203674
       -3.9089793549        0.6168219937
       -3.8796634987        0.6882827293
       -3.8503476425        0.8069053320
       -3.8210317862        0.9126105162
       -3.7917159300        1.0376412212
       -3.7624000738        1.1649461215
       -3.7330842176        1.2068849604
       -3.7037683614        1.2488143440
       -3.6744525052        1.3072787169
       -3.6451366490        1.3582454921
       -3.6158207928        1.4193843834
       -3.5865049366        1.4975842070
       -3.5571890804        1.5889024607
       -3.5278732242        1.7215532611
       -3.4985573679        1.9408712629
       -3.4692415117        1.9699047775
       -3.4399256555        1.9997530540
       -3.4106097993        1.9916831769
       -3.3812939431        2.2537911001
       -3.3519780869        2.1132415367
       -3.3226622307        1.9342850433
       -3.2933463745        1.7846152009
       -3.2640305183        1.6732619326
       -3.2347146621        1.5046048092
       -3.2053988058        1.3443800662
       -3.1760829496        1.2693524164
       -3.1467670934        1.2239987021
       -3.1174512372        1.2544320652
       -3.0881353810        1.2658372837
       -3.0588195248        1.2754118718
       -3.0295036686        1.2950961481
       -3.0001878124        1.3377575378
       -2.9708719562        1.3797023533
       -2.9415561000        1.4397808619
       -2.9122402437        1.4355412986
       -2.8829243875        1.4100328642
       -2.8536085313        1.1734130142
       -2.8242926751        0.9463021290
       -2.7949768189        0.9359327420
       -2.7656609627        1.0290276931
       -2.7363451065        1.0876807472
       -2.7070292503        1.1198053731
       -2.6777133941        1.1639715461
       -2.6483975379        1.2279329823
       -2.6190816816        1.3250392332
       -2.5897658254        1.7275380197
       -2.5604499692        1.2792420444
       -2.5311341130        1.3274161224
       -2.5018182568        1.4254492834
       -2.4725024006        1.6178964295
       -2.4431865444        1.4904980956
       -2.4138706882        1.3934714764
       -2.3845548320        1.4227468017
       -2.3552389758        1.2659976874
       -2.3259231195        1.2295872391
       -2.2966072633        1.2460046064
       -2.2672914071        1.2755428562
       -2.2379755509        1.3620952906
       -2.2086596947        1.3798195075
       -2.1793438385        1.4700192174
       -2.1500279823        1.4738936148
       -2.1207121261        1.4339734258
       -2.0913962699        1.3881564140
       -2.0620804137        1.3790665714
       -2.0327645575        1.3834014225
       -2.0034487012        1.4058632502
       -1.9741328450        1.3923395532
       -1.9448169888        1.3800915462
       -1.9155011326        1.3733797069
       -1.8861852764        1.4147865548
       -1.8568694202        1.4446064816
       -1.8275535640        1.4510035986
       -1.7982377078        1.4672269005
       -1.7689218516        1.4764378652
       -1.7396059954        1.5760998576
       -1.7102901391        1.6826039450
       -1.6809742829        1.7512352732
       -1.6516584267        1.7409224659
       -1.6223425705        1.7305836217
       -1.5930267143        1.8232099989
       -1.5637108581        1.7257747047
       -1.5343950019        1.7089323266
       -1.5050791457        1.6697619350
       -1.4757632895        1.6354677758
       -1.4464474333        1.6772771181
       -1.4171315770        1.7312343664
       -1.3878157208        1.8094261881
       -1.3584998646        1.7671308040
       -1.3291840084        1.8210357275
       -1.2998681522        1.8118774426
       -1.2705522960        1.8030812605
       -1.2412364398        1.8155564092
       -1.2119205836        1.7292990531
       -1.1826047274        1.6279843654
       -1.1532888712        1.6385926337
       -1.1239730149        1.7244063115
       -1.0946571587        2.0133153195
       -1.0653413025        1.8785442565
       -1.0360254463        1.9958729070
       -1.0067095901        1.9265064631
       -0.9773937339        2.1648110074
       -0.9480778777        1.8908203270
       -0.9187620215        1.7675602993
       -0.8894461653        1.6892325867
       -0.8601303091        1.6578601531
       -0.8308144528        1.6817005925
       -0.8014985966        1.7422559831
       -0.7721827404        1.6809402427
       -0.7428668842        1.6449938607
       -0.7135510280        1.6161821149
       -0.6842351718        1.6101028163
       -0.6549193156        1.5950781735
       -0.6256034594        1.5834816737
       -0.5962876032        1.5682980036
       -0.5669717470        1.5945232002
       -0.5376558907        1.5884072758
       -0.5083400345        1.5189826516
       -0.4790241783        1.4578484402
       -0.4497083221        1.3890640958
       -0.4203924659        1.3118750138
       -0.3910766097        1.2276459952
       -0.3617607535        1.1444935983
       -0.3324448973        1.0743343416
       -0.3031290411        0.9768613240
       -0.2738131849        0.8824972594
       -0.2444973287        0.7880028151
       -0.2151814724        0.7230032181
       -0.1858656162        0.6538837341
       -0.1565497600        0.6048833515
       -0.1272339038        0.5554348287
       -0.0979180476        0.5248082012
       -0.0686021914        0.5055823390
       -0.0392863352        0.4884357811
       -0.0099704790        0.4730147723
        0.0193453772        0.4624248907
        0.0486612334        0.4482821500
        0.0779770897        0.4415517649
        0.1072929459        0.4508258093
        0.1366088021        0.4246524207
        0.1659246583        0.4384337854
        0.1952405145        0.4596932676
        0.2245563707        0.4950357559
        0.2538722269        0.5006465887
        0.2831880831        0.5388147588
        0.3125039393        0.5749978302
        0.3418197955        0.5785521288
        0.3711356518        0.5823778812
        0.4004515080        0.5780458812
        0.4297673642        0.5691483556
        0.4590832204        0.6179703132
        0.4883990766        0.5530297088
        0.5177149328        0.6265772048
        0.5470307890        0.5741597627
        0.5763466452        0.5417655106
        0.6056625014        0.4597625019
        0.6349783576        0.3997307129
        0.6642942139        0.3353173611
        0.6936100701        0.2794958783
        0.7229259263        0.0620622015
        0.7522417825        0.0000000000
        0.7815576387        0.0000000000
        0.8108734949        0.0000000000
        0.8401893511        0.0000000000
        0.8695052073        0.0000000000
        0.8988210635        0.0000000000
        0.9281369197        0.0000000000
        0.9574527760        0.0000000000
        0.9867686322        0.0000000000
        1.0160844884        0.0000000000
        1.0454003446        0.0000000000
        1.0747162008        0.0000000000
        1.1040320570        0.0000000000
        1.1333479132        0.0000000000
        1.1626637694        0.0000000000
        1.1919796256        0.0000000000
        1.2212954818        0.0000000000
