nqpoint: 427    
npath: 6      
segment_nqpoint:
- 95
- 34
- 101
- 82
- 67
- 48
labels:
- [ '$\Gamma$', '$\mathrm{X}$' ]
- [ '$\mathrm{X}$', '$\mathrm{U}$' ]
- [ '$\mathrm{K}$', '$\Gamma$' ]
- [ '$\Gamma$', '$\mathrm{L}$' ]
- [ '$\mathrm{L}$', '$\mathrm{W}$' ]
- [ '$\mathrm{W}$', '$\mathrm{X}$' ]
reciprocal_lattice:
- [  -0.24691358,   0.24691358,   0.24691358 ] # a*
- [   0.24691358,  -0.24691358,   0.24691358 ] # b*
- [   0.24691358,   0.24691358,  -0.24691358 ] # c*
natom: 1      
lattice:
- [     0.000000000000000,     2.024999999999999,     2.024999999999999 ] # a
- [     2.024999999999999,     0.000000000000000,     2.024999999999999 ] # b
- [     2.024999999999999,     2.024999999999999,     0.000000000000000 ] # c
points:
- symbol: Al # 1
  coordinates: [  0.000000000000000,  0.000000000000000,  0.000000000000000 ]
  mass: 26.981538

phonon:
- q-position: [    0.0000000,    0.0000000,    0.0000000 ]
  distance:    0.0000000
  band:
  - # 1
    frequency:    0.0000001638
    eigenvector:
    - # atom 1
      - [ -0.14533469181064,  0.00000000000000 ]
      - [ -0.98743743273144,  0.00000000000000 ]
      - [ -0.06200922348363,  0.00000000000000 ]
  - # 2
    frequency:    0.0000001718
    eigenvector:
    - # atom 1
      - [  0.87908907306554, -0.00000000000000 ]
      - [ -0.15763648864132,  0.00000000000000 ]
      - [  0.44983679158736,  0.00000000000000 ]
  - # 3
    frequency:    0.0000001774
    eigenvector:
    - # atom 1
      - [ -0.45396060288651,  0.00000000000000 ]
      - [  0.01086526067670,  0.00000000000000 ]
      - [  0.89095550794489,  0.00000000000000 ]

- q-position: [    0.0053191,    0.0000000,    0.0053191 ]
  distance:    0.0026267
  band:
  - # 1
    frequency:    0.0965097177
    eigenvector:
    - # atom 1
      - [  0.02752800482908,  0.00000000000000 ]
      - [  0.00000000000024,  0.00000000000000 ]
      - [  0.99962063798908, -0.00088828848165 ]
  - # 2
    frequency:    0.0965097177
    eigenvector:
    - # atom 1
      - [  0.99962103266695,  0.00000000000000 ]
      - [  0.00000000000011, -0.00000000000000 ]
      - [ -0.02752799396027,  0.00002446207994 ]
  - # 3
    frequency:    0.1714019821
    eigenvector:
    - # atom 1
      - [ -0.00000000000012,  0.00000000000000 ]
      - [  0.99982594986649, -0.01865663350048 ]
      - [ -0.00000000000024,  0.00000000000000 ]

- q-position: [    0.0106383,    0.0000000,    0.0106383 ]
  distance:    0.0052535
  band:
  - # 1
    frequency:    0.1929671166
    eigenvector:
    - # atom 1
      - [  0.99993741833878,  0.00000000000000 ]
      - [  0.00000000000004, -0.00000000000000 ]
      - [ -0.01117708828986, -0.00048177104698 ]
  - # 2
    frequency:    0.1929671166
    eigenvector:
    - # atom 1
      - [ -0.01118746646837,  0.00000000000000 ]
      - [ -0.00000000000005, -0.00000000000000 ]
      - [ -0.99900981519811, -0.04306076789665 ]
  - # 3
    frequency:    0.3427220119
    eigenvector:
    - # atom 1
      - [  0.00000000000004,  0.00000000000000 ]
      - [ -0.99997634174652,  0.00687865882663 ]
      - [  0.00000000000005, -0.00000000000000 ]

- q-position: [    0.0159574,    0.0000000,    0.0159574 ]
  distance:    0.0078802
  band:
  - # 1
    frequency:    0.2893201962
    eigenvector:
    - # atom 1
      - [  0.02268530202822,  0.00000000000000 ]
      - [  0.00000000000001, -0.00000000000000 ]
      - [  0.99960055592048, -0.01685543459397 ]
  - # 2
    frequency:    0.2893201962
    eigenvector:
    - # atom 1
      - [  0.99974265542283,  0.00000000000000 ]
      - [  0.00000000000001, -0.00000000000000 ]
      - [ -0.02268207762831,  0.00038246905092 ]
  - # 3
    frequency:    0.5138782361
    eigenvector:
    - # atom 1
      - [ -0.00000000000001,  0.00000000000000 ]
      - [  0.99960937102992, -0.02794826200635 ]
      - [ -0.00000000000001,  0.00000000000000 ]

- q-position: [    0.0212766,    0.0000000,    0.0212766 ]
  distance:    0.0105070
  band:
  - # 1
    frequency:    0.3855175899
    eigenvector:
    - # atom 1
      - [  0.04057539952082,  0.00000000000000 ]
      - [ -0.00000000000000,  0.00000000000000 ]
      - [  0.99868212003169, -0.03142705972128 ]
  - # 2
    frequency:    0.3855175899
    eigenvector:
    - # atom 1
      - [  0.99917647938376,  0.00000000000000 ]
      - [  0.00000000000001, -0.00000000000000 ]
      - [ -0.04055532416013,  0.00127621649455 ]
  - # 3
    frequency:    0.6847889994
    eigenvector:
    - # atom 1
      - [ -0.00000000000001,  0.00000000000000 ]
      - [  0.99974051496384, -0.02277943677622 ]
      - [  0.00000000000000,  0.00000000000000 ]

- q-position: [    0.0265957,    0.0000000,    0.0265957 ]
  distance:    0.0131337
  band:
  - # 1
    frequency:    0.4815088733
    eigenvector:
    - # atom 1
      - [  0.01500094160914,  0.00000000000000 ]
      - [  0.00000000000000,  0.00000000000000 ]
      - [  0.99965129494750, -0.02173154989016 ]
  - # 2
    frequency:    0.4815088733
    eigenvector:
    - # atom 1
      - [  0.99988747954499,  0.00000000000000 ]
      - [  0.00000000000000, -0.00000000000000 ]
      - [ -0.01499739821908,  0.00032603039607 ]
  - # 3
    frequency:    0.8553729423
    eigenvector:
    - # atom 1
      - [ -0.00000000000000,  0.00000000000000 ]
      - [  0.99757794330235, -0.06955750884456 ]
      - [  0.00000000000000,  0.00000000000000 ]

- q-position: [    0.0319149,    0.0000000,    0.0319149 ]
  distance:    0.0157604
  band:
  - # 1
    frequency:    0.5772448637
    eigenvector:
    - # atom 1
      - [  0.92373237931400,  0.00000000000000 ]
      - [  0.00000000000000, -0.00000000000000 ]
      - [ -0.38278550088136, -0.01391947275932 ]
  - # 2
    frequency:    0.5772448637
    eigenvector:
    - # atom 1
      - [  0.38303849859627,  0.00000000000000 ]
      - [ -0.00000000000000, -0.00000000000000 ]
      - [  0.92312225218052,  0.03356808189747 ]
  - # 3
    frequency:    1.0255490992
    eigenvector:
    - # atom 1
      - [  0.00000000000000,  0.00000000000000 ]
      - [ -0.99991863683411,  0.01275616367978 ]
      - [ -0.00000000000000,  0.00000000000000 ]

- q-position: [    0.0372340,    0.0000000,    0.0372340 ]
  distance:    0.0183872
  band:
  - # 1
    frequency:    0.6726779056
    eigenvector:
    - # atom 1
      - [  0.01457000577364,  0.00000000000000 ]
      - [ -0.00000000000001, -0.00000000000000 ]
      - [  0.99938065937602,  0.03203143139026 ]
  - # 2
    frequency:    0.6726779056
    eigenvector:
    - # atom 1
      - [  0.99989385183216,  0.00000000000000 ]
      - [  0.00000000000000,  0.00000000000000 ]
      - [ -0.01456252776281, -0.00046674768471 ]
  - # 3
    frequency:    1.1952369940
    eigenvector:
    - # atom 1
      - [ -0.00000000000000,  0.00000000000000 ]
      - [  0.99925210689839,  0.03866816337942 ]
      - [  0.00000000000001,  0.00000000000000 ]

- q-position: [    0.0425532,    0.0000000,    0.0425532 ]
  distance:    0.0210139
  band:
  - # 1
    frequency:    0.7677621416
    eigenvector:
    - # atom 1
      - [  0.90656412742878,  0.00000000000000 ]
      - [  0.00000000000000,  0.00000000000000 ]
      - [  0.42206351555808, -0.00196766207719 ]
  - # 2
    frequency:    0.7677621416
    eigenvector:
    - # atom 1
      - [  0.42206810215805,  0.00000000000000 ]
      - [  0.00000000000000,  0.00000000000000 ]
      - [ -0.90655427582669,  0.00422636026026 ]
  - # 3
    frequency:    1.3643567357
    eigenvector:
    - # atom 1
      - [ -0.00000000000000,  0.00000000000000 ]
      - [  0.99905424948849,  0.04348110600001 ]
      - [  0.00000000000000, -0.00000000000000 ]

- q-position: [    0.0478723,    0.0000000,    0.0478723 ]
  distance:    0.0236407
  band:
  - # 1
    frequency:    0.8624537636
    eigenvector:
    - # atom 1
      - [  0.94422805142317,  0.00000000000000 ]
      - [ -0.00000000000000, -0.00000000000000 ]
      - [ -0.32922175653250, -0.00681336416665 ]
  - # 2
    frequency:    0.8624537636
    eigenvector:
    - # atom 1
      - [ -0.32929225151165,  0.00000000000000 ]
      - [ -0.00000000000000, -0.00000000000000 ]
      - [ -0.94402591081253, -0.01953696007476 ]
  - # 3
    frequency:    1.5328291116
    eigenvector:
    - # atom 1
      - [  0.00000000000000,  0.00000000000000 ]
      - [  0.99353421661784,  0.11353308068391 ]
      - [ -0.00000000000000, -0.00000000000000 ]

- q-position: [    0.0531915,    0.0000000,    0.0531915 ]
  distance:    0.0262674
  band:
  - # 1
    frequency:    0.9567112432
    eigenvector:
    - # atom 1
      - [ -0.13276011441019,  0.00000000000000 ]
      - [  0.00000000000000,  0.00000000000000 ]
      - [  0.99110133798926,  0.00963793845695 ]
  - # 2
    frequency:    0.9567112432
    eigenvector:
    - # atom 1
      - [  0.99114819881882,  0.00000000000000 ]
      - [ -0.00000000000000, -0.00000000000000 ]
      - [  0.13275383760002,  0.00129096114360 ]
  - # 3
    frequency:    1.7005756789
    eigenvector:
    - # atom 1
      - [  0.00000000000000,  0.00000000000000 ]
      - [  0.99578704174613,  0.09169606038696 ]
      - [ -0.00000000000000,  0.00000000000000 ]

- q-position: [    0.0585106,    0.0000000,    0.0585106 ]
  distance:    0.0288941
  band:
  - # 1
    frequency:    1.0504955379
    eigenvector:
    - # atom 1
      - [  0.02588794183703,  0.00000000000000 ]
      - [ -0.00000000000000, -0.00000000000000 ]
      - [ -0.99924819925341, -0.02885915376905 ]
  - # 2
    frequency:    1.0504955379
    eigenvector:
    - # atom 1
      - [  0.99966485107132,  0.00000000000000 ]
      - [  0.00000000000000,  0.00000000000000 ]
      - [  0.02587715196279,  0.00074735456932 ]
  - # 3
    frequency:    1.8675188546
    eigenvector:
    - # atom 1
      - [  0.00000000000000,  0.00000000000000 ]
      - [ -0.99755718658236, -0.06985455960696 ]
      - [  0.00000000000000,  0.00000000000000 ]

- q-position: [    0.0638298,    0.0000000,    0.0638298 ]
  distance:    0.0315209
  band:
  - # 1
    frequency:    1.1437702710
    eigenvector:
    - # atom 1
      - [  0.03776616866979,  0.00000000000000 ]
      - [  0.00000000000000, -0.00000000000000 ]
      - [  0.99896160927142, -0.02548371452223 ]
  - # 2
    frequency:    1.1437702710
    eigenvector:
    - # atom 1
      - [  0.99928660378492,  0.00000000000000 ]
      - [  0.00000000000000,  0.00000000000000 ]
      - [ -0.03775388610985,  0.00096310933954 ]
  - # 3
    frequency:    2.0335820028
    eigenvector:
    - # atom 1
      - [ -0.00000000000000,  0.00000000000000 ]
      - [  0.97290601804738,  0.23120095165719 ]
      - [ -0.00000000000000, -0.00000000000000 ]

- q-position: [    0.0691489,    0.0000000,    0.0691489 ]
  distance:    0.0341476
  band:
  - # 1
    frequency:    1.2365018833
    eigenvector:
    - # atom 1
      - [ -0.17200288656597,  0.00000000000000 ]
      - [ -0.00000000000000, -0.00000000000000 ]
      - [ -0.98494750443631,  0.01712952181628 ]
  - # 2
    frequency:    1.2365018833
    eigenvector:
    - # atom 1
      - [  0.98509644553870,  0.00000000000000 ]
      - [  0.00000000000000,  0.00000000000000 ]
      - [ -0.17197688068639,  0.00299090227281 ]
  - # 3
    frequency:    2.1986895200
    eigenvector:
    - # atom 1
      - [ -0.00000000000000,  0.00000000000000 ]
      - [  0.99013217248493,  0.14013665120258 ]
      - [  0.00000000000000,  0.00000000000000 ]

- q-position: [    0.0744681,    0.0000000,    0.0744681 ]
  distance:    0.0367744
  band:
  - # 1
    frequency:    1.3286597543
    eigenvector:
    - # atom 1
      - [  0.03888554911307,  0.00000000000000 ]
      - [  0.00000000000000, -0.00000000000000 ]
      - [  0.99916859239068,  0.01224900200829 ]
  - # 2
    frequency:    1.3286597543
    eigenvector:
    - # atom 1
      - [  0.99924367101832,  0.00000000000000 ]
      - [  0.00000000000000,  0.00000000000000 ]
      - [ -0.03888262742965, -0.00047666968828 ]
  - # 3
    frequency:    2.3627669172
    eigenvector:
    - # atom 1
      - [ -0.00000000000000,  0.00000000000000 ]
      - [  0.99535481484072,  0.09627456867414 ]
      - [ -0.00000000000000, -0.00000000000000 ]

- q-position: [    0.0797872,    0.0000000,    0.0797872 ]
  distance:    0.0394011
  band:
  - # 1
    frequency:    1.4202162923
    eigenvector:
    - # atom 1
      - [  0.16805483978603,  0.00000000000000 ]
      - [  0.00000000000000, -0.00000000000000 ]
      - [  0.98566070879066, -0.01518347690050 ]
  - # 2
    frequency:    1.4202162923
    eigenvector:
    - # atom 1
      - [  0.98577764776064,  0.00000000000000 ]
      - [  0.00000000000000, -0.00000000000000 ]
      - [ -0.16803490409373,  0.00258847092314 ]
  - # 3
    frequency:    2.5257409004
    eigenvector:
    - # atom 1
      - [ -0.00000000000000,  0.00000000000000 ]
      - [  0.94841119669638, -0.31704290242954 ]
      - [  0.00000000000000, -0.00000000000000 ]

- q-position: [    0.0851064,    0.0000000,    0.0851064 ]
  distance:    0.0420278
  band:
  - # 1
    frequency:    1.5111469913
    eigenvector:
    - # atom 1
      - [ -0.04957437252169,  0.00000000000000 ]
      - [ -0.00000000000000,  0.00000000000000 ]
      - [ -0.98329088295131,  0.17516112894679 ]
  - # 2
    frequency:    1.5111469913
    eigenvector:
    - # atom 1
      - [  0.99877043487935,  0.00000000000000 ]
      - [ -0.00000000000000, -0.00000000000000 ]
      - [ -0.04880603873151,  0.00869419313436 ]
  - # 3
    frequency:    2.6875394475
    eigenvector:
    - # atom 1
      - [ -0.00000000000000,  0.00000000000000 ]
      - [ -0.95016610407165, -0.31174408522586 ]
      - [  0.00000000000000,  0.00000000000000 ]

- q-position: [    0.0904255,    0.0000000,    0.0904255 ]
  distance:    0.0446546
  band:
  - # 1
    frequency:    1.6014304543
    eigenvector:
    - # atom 1
      - [ -0.11299790629982,  0.00000000000000 ]
      - [  0.00000000000000,  0.00000000000000 ]
      - [  0.99334639281091,  0.02223549103129 ]
  - # 2
    frequency:    1.6014304543
    eigenvector:
    - # atom 1
      - [  0.99359522602107,  0.00000000000000 ]
      - [  0.00000000000000,  0.00000000000000 ]
      - [  0.11296960742012,  0.00252876006877 ]
  - # 3
    frequency:    2.8480918826
    eigenvector:
    - # atom 1
      - [  0.00000000000000,  0.00000000000000 ]
      - [  0.77544603639856, -0.63141384577294 ]
      - [ -0.00000000000000,  0.00000000000000 ]

- q-position: [    0.0957447,    0.0000000,    0.0957447 ]
  distance:    0.0472813
  band:
  - # 1
    frequency:    1.6910483822
    eigenvector:
    - # atom 1
      - [  0.04374766324751,  0.00000000000000 ]
      - [  0.00000000000000, -0.00000000000000 ]
      - [  0.99763344275839, -0.05304390493194 ]
  - # 2
    frequency:    1.6910483822
    eigenvector:
    - # atom 1
      - [  0.99904261268496,  0.00000000000000 ]
      - [  0.00000000000000, -0.00000000000000 ]
      - [ -0.04368595627863,  0.00232277068148 ]
  - # 3
    frequency:    3.0073289473
    eigenvector:
    - # atom 1
      - [ -0.00000000000000,  0.00000000000000 ]
      - [  0.86807615525340, -0.49643105128554 ]
      - [ -0.00000000000000,  0.00000000000000 ]

- q-position: [    0.1010638,    0.0000000,    0.1010638 ]
  distance:    0.0499081
  band:
  - # 1
    frequency:    1.7799855292
    eigenvector:
    - # atom 1
      - [  0.02725039835795,  0.00000000000000 ]
      - [ -0.00000000000000,  0.00000000000000 ]
      - [ -0.99953675814085,  0.01355304078835 ]
  - # 2
    frequency:    1.7799855292
    eigenvector:
    - # atom 1
      - [  0.99962863894015,  0.00000000000000 ]
      - [  0.00000000000000, -0.00000000000000 ]
      - [  0.02724789363942, -0.00036946296460 ]
  - # 3
    frequency:    3.1651828689
    eigenvector:
    - # atom 1
      - [  0.00000000000000,  0.00000000000000 ]
      - [ -0.99519593572994,  0.09790326606717 ]
      - [  0.00000000000000, -0.00000000000000 ]

- q-position: [    0.1063830,    0.0000000,    0.1063830 ]
  distance:    0.0525348
  band:
  - # 1
    frequency:    1.8682296232
    eigenvector:
    - # atom 1
      - [  0.01712260612306,  0.00000000000000 ]
      - [ -0.00000000000000,  0.00000000000000 ]
      - [ -0.99920371298404, -0.03603826186804 ]
  - # 2
    frequency:    1.8682296232
    eigenvector:
    - # atom 1
      - [  0.99985339743362,  0.00000000000000 ]
      - [  0.00000000000000,  0.00000000000000 ]
      - [  0.01711148020103,  0.00061715944048 ]
  - # 3
    frequency:    3.3215874264
    eigenvector:
    - # atom 1
      - [  0.00000000000000,  0.00000000000000 ]
      - [ -0.00603853724558, -0.99998176786776 ]
      - [  0.00000000000000,  0.00000000000000 ]

- q-position: [    0.1117021,    0.0000000,    0.1117021 ]
  distance:    0.0551615
  band:
  - # 1
    frequency:    1.9557712540
    eigenvector:
    - # atom 1
      - [  0.05029367064832,  0.00000000000000 ]
      - [  0.00000000000000,  0.00000000000000 ]
      - [  0.99868586086418, -0.00985383187829 ]
  - # 2
    frequency:    1.9557712540
    eigenvector:
    - # atom 1
      - [  0.99873447256652,  0.00000000000000 ]
      - [  0.00000000000000, -0.00000000000000 ]
      - [ -0.05029122268941,  0.00049621334671 ]
  - # 3
    frequency:    3.4764780121
    eigenvector:
    - # atom 1
      - [ -0.00000000000000,  0.00000000000000 ]
      - [  0.45599179222161, -0.88998398043253 ]
      - [ -0.00000000000000,  0.00000000000000 ]

- q-position: [    0.1170213,    0.0000000,    0.1170213 ]
  distance:    0.0577883
  band:
  - # 1
    frequency:    2.0426037287
    eigenvector:
    - # atom 1
      - [  0.06895445652307,  0.00000000000000 ]
      - [ -0.00000000000000,  0.00000000000000 ]
      - [ -0.99761642678777,  0.00259767757870 ]
  - # 2
    frequency:    2.0426037287
    eigenvector:
    - # atom 1
      - [  0.99761980880775,  0.00000000000000 ]
      - [  0.00000000000000, -0.00000000000000 ]
      - [  0.06895422276132, -0.00017954880615 ]
  - # 3
    frequency:    3.6297916910
    eigenvector:
    - # atom 1
      - [  0.00000000000000,  0.00000000000000 ]
      - [ -0.94519222031480,  0.32651442028856 ]
      - [  0.00000000000000, -0.00000000000000 ]

- q-position: [    0.1223404,    0.0000000,    0.1223404 ]
  distance:    0.0604150
  band:
  - # 1
    frequency:    2.1287228966
    eigenvector:
    - # atom 1
      - [  0.76789385283541,  0.00000000000000 ]
      - [  0.00000000000000, -0.00000000000000 ]
      - [ -0.64057168383031, -0.00263602966521 ]
  - # 2
    frequency:    2.1287228966
    eigenvector:
    - # atom 1
      - [  0.64057710759720,  0.00000000000000 ]
      - [  0.00000000000000,  0.00000000000000 ]
      - [  0.76788735107753,  0.00315994897694 ]
  - # 3
    frequency:    3.7814672575
    eigenvector:
    - # atom 1
      - [  0.00000000000000,  0.00000000000000 ]
      - [ -0.99835550781624,  0.05732608492632 ]
      - [  0.00000000000000, -0.00000000000000 ]

- q-position: [    0.1276596,    0.0000000,    0.1276596 ]
  distance:    0.0630418
  band:
  - # 1
    frequency:    2.2141269460
    eigenvector:
    - # atom 1
      - [  0.06812311768994,  0.00000000000000 ]
      - [  0.00000000000000, -0.00000000000000 ]
      - [ -0.99702899565160,  0.03595028047421 ]
  - # 2
    frequency:    2.2141269460
    eigenvector:
    - # atom 1
      - [  0.99767692207257,  0.00000000000000 ]
      - [  0.00000000000000,  0.00000000000000 ]
      - [  0.06807887614555, -0.00245474775807 ]
  - # 3
    frequency:    3.9314452885
    eigenvector:
    - # atom 1
      - [  0.00000000000000,  0.00000000000000 ]
      - [ -0.98753966919576, -0.15737026963418 ]
      - [ -0.00000000000000, -0.00000000000000 ]

- q-position: [    0.1329787,    0.0000000,    0.1329787 ]
  distance:    0.0656685
  band:
  - # 1
    frequency:    2.2988161742
    eigenvector:
    - # atom 1
      - [  0.51603283609957,  0.00000000000000 ]
      - [  0.00000000000000, -0.00000000000000 ]
      - [ -0.85656838197112, -0.00084798255857 ]
  - # 2
    frequency:    2.2988161742
    eigenvector:
    - # atom 1
      - [  0.85656880171241,  0.00000000000000 ]
      - [  0.00000000000000, -0.00000000000000 ]
      - [  0.51603258322987,  0.00051086012447 ]
  - # 3
    frequency:    4.0796681937
    eigenvector:
    - # atom 1
      - [  0.00000000000000,  0.00000000000000 ]
      - [ -0.80228675117284,  0.59693883178474 ]
      - [ -0.00000000000000, -0.00000000000000 ]

- q-position: [    0.1382979,    0.0000000,    0.1382979 ]
  distance:    0.0682952
  band:
  - # 1
    frequency:    2.3827927341
    eigenvector:
    - # atom 1
      - [  0.04783312226906,  0.00000000000000 ]
      - [ -0.00000000000000, -0.00000000000000 ]
      - [ -0.99881834153810,  0.00859726823334 ]
  - # 2
    frequency:    2.3827927341
    eigenvector:
    - # atom 1
      - [  0.99885534108498,  0.00000000000000 ]
      - [  0.00000000000000,  0.00000000000000 ]
      - [  0.04783135043707, -0.00041170544489 ]
  - # 3
    frequency:    4.2260802634
    eigenvector:
    - # atom 1
      - [  0.00000000000000,  0.00000000000000 ]
      - [ -0.99999726092403, -0.00234054361831 ]
      - [  0.00000000000000, -0.00000000000000 ]

- q-position: [    0.1436170,    0.0000000,    0.1436170 ]
  distance:    0.0709220
  band:
  - # 1
    frequency:    2.4660603602
    eigenvector:
    - # atom 1
      - [ -0.93341268759496,  0.00000000000000 ]
      - [ -0.00000000000000,  0.00000000000000 ]
      - [  0.35870193643639,  0.00858343949357 ]
  - # 2
    frequency:    2.4660603602
    eigenvector:
    - # atom 1
      - [  0.35880461902930,  0.00000000000000 ]
      - [  0.00000000000000, -0.00000000000000 ]
      - [  0.93314556384591,  0.02232939851270 ]
  - # 3
    frequency:    4.3706277131
    eigenvector:
    - # atom 1
      - [  0.00000000000000,  0.00000000000000 ]
      - [ -0.98554408679717,  0.16941916355338 ]
      - [ -0.00000000000000, -0.00000000000000 ]

- q-position: [    0.1489362,    0.0000000,    0.1489362 ]
  distance:    0.0735487
  band:
  - # 1
    frequency:    2.5486240775
    eigenvector:
    - # atom 1
      - [  0.05190641101635,  0.00000000000000 ]
      - [ -0.00000000000000,  0.00000000000000 ]
      - [ -0.99839153358613, -0.02280504678665 ]
  - # 2
    frequency:    2.5486240775
    eigenvector:
    - # atom 1
      - [  0.99865195363320,  0.00000000000000 ]
      - [  0.00000000000000,  0.00000000000000 ]
      - [  0.05189287529957,  0.00118532600617 ]
  - # 3
    frequency:    4.5132587257
    eigenvector:
    - # atom 1
      - [  0.00000000000000,  0.00000000000000 ]
      - [ -0.99315972749568, -0.11676367449130 ]
      - [  0.00000000000000,  0.00000000000000 ]

- q-position: [    0.1542553,    0.0000000,    0.1542553 ]
  distance:    0.0761755
  band:
  - # 1
    frequency:    2.6304898972
    eigenvector:
    - # atom 1
      - [  0.00734375397927,  0.00000000000000 ]
      - [  0.00000000000000,  0.00000000000000 ]
      - [  0.99952514207478, -0.02992590245733 ]
  - # 2
    frequency:    2.6304898972
    eigenvector:
    - # atom 1
      - [  0.99997303427517,  0.00000000000000 ]
      - [  0.00000000000000,  0.00000000000000 ]
      - [ -0.00734046468044,  0.00021977439163 ]
  - # 3
    frequency:    4.6539234913
    eigenvector:
    - # atom 1
      - [ -0.00000000000000,  0.00000000000000 ]
      - [  0.97776716482162,  0.20969351777459 ]
      - [ -0.00000000000000, -0.00000000000000 ]

- q-position: [    0.1595745,    0.0000000,    0.1595745 ]
  distance:    0.0788022
  band:
  - # 1
    frequency:    2.7116645020
    eigenvector:
    - # atom 1
      - [  0.03638800328497,  0.00000000000000 ]
      - [ -0.00000000000000, -0.00000000000000 ]
      - [ -0.99931538176385,  0.00668438382451 ]
  - # 2
    frequency:    2.7116645020
    eigenvector:
    - # atom 1
      - [  0.99933773731253,  0.00000000000000 ]
      - [  0.00000000000000, -0.00000000000000 ]
      - [  0.03638718927210, -0.00024339257038 ]
  - # 3
    frequency:    4.7925742436
    eigenvector:
    - # atom 1
      - [  0.00000000000000,  0.00000000000000 ]
      - [ -0.87974436515075,  0.47544700228889 ]
      - [  0.00000000000000, -0.00000000000000 ]

- q-position: [    0.1648936,    0.0000000,    0.1648936 ]
  distance:    0.0814289
  band:
  - # 1
    frequency:    2.7921549264
    eigenvector:
    - # atom 1
      - [  0.05050356608672,  0.00000000000000 ]
      - [ -0.00000000000000,  0.00000000000000 ]
      - [ -0.99859591112638, -0.01598737296138 ]
  - # 2
    frequency:    2.7921549264
    eigenvector:
    - # atom 1
      - [  0.99872388066598,  0.00000000000000 ]
      - [  0.00000000000000,  0.00000000000000 ]
      - [  0.05049709491063,  0.00080845102689 ]
  - # 3
    frequency:    4.9291652948
    eigenvector:
    - # atom 1
      - [  0.00000000000000,  0.00000000000000 ]
      - [ -0.93112575794284, -0.36469826280827 ]
      - [  0.00000000000000,  0.00000000000000 ]

- q-position: [    0.1702128,    0.0000000,    0.1702128 ]
  distance:    0.0840557
  band:
  - # 1
    frequency:    2.8719682353
    eigenvector:
    - # atom 1
      - [  0.96860085603120,  0.00000000000000 ]
      - [  0.00000000000000, -0.00000000000000 ]
      - [ -0.24860908237938,  0.00243019630869 ]
  - # 2
    frequency:    2.8719682353
    eigenvector:
    - # atom 1
      - [ -0.24862095988798,  0.00000000000000 ]
      - [  0.00000000000000, -0.00000000000000 ]
      - [ -0.96855458251913,  0.00946778673039 ]
  - # 3
    frequency:    5.0636530674
    eigenvector:
    - # atom 1
      - [  0.00000000000000,  0.00000000000000 ]
      - [ -0.99917507392033,  0.04060999453698 ]
      - [ -0.00000000000000,  0.00000000000000 ]

- q-position: [    0.1755319,    0.0000000,    0.1755319 ]
  distance:    0.0866824
  band:
  - # 1
    frequency:    2.9511112048
    eigenvector:
    - # atom 1
      - [  0.10863932502860,  0.00000000000000 ]
      - [ -0.00000000000000,  0.00000000000000 ]
      - [ -0.99407092322320,  0.00452732365814 ]
  - # 2
    frequency:    2.9511112048
    eigenvector:
    - # atom 1
      - [  0.99408123262505,  0.00000000000000 ]
      - [  0.00000000000000,  0.00000000000000 ]
      - [  0.10863819835362, -0.00049477383765 ]
  - # 3
    frequency:    5.1959961245
    eigenvector:
    - # atom 1
      - [  0.00000000000000,  0.00000000000000 ]
      - [ -0.99160631973785, -0.12929387710155 ]
      - [  0.00000000000000,  0.00000000000000 ]

- q-position: [    0.1808511,    0.0000000,    0.1808511 ]
  distance:    0.0893092
  band:
  - # 1
    frequency:    3.0295900106
    eigenvector:
    - # atom 1
      - [  0.02617943411506,  0.00000000000000 ]
      - [  0.00000000000000,  0.00000000000000 ]
      - [ -0.99910440491186,  0.03324192105067 ]
  - # 2
    frequency:    3.0295900106
    eigenvector:
    - # atom 1
      - [  0.99965725987931,  0.00000000000000 ]
      - [  0.00000000000000, -0.00000000000000 ]
      - [  0.02616495572254, -0.00087055305546 ]
  - # 3
    frequency:    5.3261551967
    eigenvector:
    - # atom 1
      - [  0.00000000000000,  0.00000000000000 ]
      - [ -0.99786796511572,  0.06526503042065 ]
      - [  0.00000000000000,  0.00000000000000 ]

- q-position: [    0.1861702,    0.0000000,    0.1861702 ]
  distance:    0.0919359
  band:
  - # 1
    frequency:    3.1074099258
    eigenvector:
    - # atom 1
      - [  0.00224866230187,  0.00000000000000 ]
      - [ -0.00000000000000, -0.00000000000000 ]
      - [  0.82289482011807,  0.56818928055772 ]
  - # 2
    frequency:    3.1074099258
    eigenvector:
    - # atom 1
      - [  0.99999747175573,  0.00000000000000 ]
      - [  0.00000000000000, -0.00000000000000 ]
      - [ -0.00185041723871, -0.00127766904578 ]
  - # 3
    frequency:    5.4540932079
    eigenvector:
    - # atom 1
      - [ -0.00000000000000,  0.00000000000000 ]
      - [  0.97141216030185, -0.23739927299319 ]
      - [  0.00000000000000,  0.00000000000000 ]

- q-position: [    0.1914894,    0.0000000,    0.1914894 ]
  distance:    0.0945626
  band:
  - # 1
    frequency:    3.1845750353
    eigenvector:
    - # atom 1
      - [  0.07354259001383,  0.00000000000000 ]
      - [  0.00000000000000,  0.00000000000000 ]
      - [  0.99726022214350, -0.00797099644697 ]
  - # 2
    frequency:    3.1845750353
    eigenvector:
    - # atom 1
      - [  0.99729207730437,  0.00000000000000 ]
      - [  0.00000000000000,  0.00000000000000 ]
      - [ -0.07354024094169,  0.00058779943914 ]
  - # 3
    frequency:    5.5797752981
    eigenvector:
    - # atom 1
      - [ -0.00000000000000,  0.00000000000000 ]
      - [  0.99447803601069,  0.10494491837299 ]
      - [ -0.00000000000000,  0.00000000000000 ]

- q-position: [    0.1968085,    0.0000000,    0.1968085 ]
  distance:    0.0971894
  band:
  - # 1
    frequency:    3.2610879665
    eigenvector:
    - # atom 1
      - [  0.00761590616027,  0.00000000000000 ]
      - [  0.00000000000000,  0.00000000000000 ]
      - [  0.99401984436531, -0.10893368157428 ]
  - # 2
    frequency:    3.2610879665
    eigenvector:
    - # atom 1
      - [  0.99997099856614,  0.00000000000000 ]
      - [  0.00000000000000, -0.00000000000000 ]