phonopy:
  version: "3.5.1"
  frequency_unit_conversion_factor: 15.633302
  symmetry_tolerance: 1.00000e-05

physical_unit:
  atomic_mass: "AMU"
  length: "angstrom"
  force: "eV/angstrom"
  force_constants: "eV/angstrom^2"

space_group:
  type: "Fm-3m"
  number: 225
  Hall_symbol: "-F 4 2 3"

primitive_matrix:
- [  1.000000000000000,  0.000000000000000,  0.000000000000000 ]
- [  0.000000000000000,  1.000000000000000,  0.000000000000000 ]
- [  0.000000000000000,  0.000000000000000,  1.000000000000000 ]

supercell_matrix:
- [   5,   0,   0 ]
- [   0,   5,   0 ]
- [   0,   0,   5 ]

primitive_cell:
  lattice:
  - [     0.000000000000000,     2.024999999999999,     2.024999999999999 ] # a
  - [     2.024999999999999,     0.000000000000000,     2.024999999999999 ] # b
  - [     2.024999999999999,     2.024999999999999,     0.000000000000000 ] # c
  points:
  - symbol: Al # 1
    coordinates: [  0.000000000000000,  0.000000000000000,  0.000000000000000 ]
    mass: 26.981538
  reciprocal_lattice: # without 2pi
  - [    -0.246913580246914,     0.246913580246914,     0.246913580246914 ] # a*
  - [     0.246913580246914,    -0.246913580246914,     0.246913580246914 ] # b*
  - [     0.246913580246914,     0.246913580246914,    -0.246913580246914 ] # c*

unit_cell:
  lattice:
  - [     0.000000000000000,     2.025000000000000,     2.025000000000000 ] # a
  - [     2.025000000000000,     0.000000000000000,     2.025000000000000 ] # b
  - [     2.025000000000000,     2.025000000000000,     0.000000000000000 ] # c
  points:
  - symbol: Al # 1
    coordinates: [  0.000000000000000,  0.000000000000000,  0.000000000000000 ]
    mass: 26.981538
    reduced_to: 1

supercell:
  lattice:
  - [     0.000000000000000,    10.125000000000000,    10.125000000000000 ] # a
  - [    10.125000000000000,     0.000000000000000,    10.125000000000000 ] # b
  - [    10.125000000000000,    10.125000000000000,     0.000000000000000 ] # c
  points:
  - symbol: Al # 1
    coordinates: [  0.000000000000000,  0.000000000000000,  0.000000000000000 ]
    mass: 26.981538
    reduced_to: 1
  - symbol: Al # 2
    coordinates: [  0.200000000000000,  0.000000000000000,  0.000000000000000 ]
    mass: 26.981538
    reduced_to: 1
  - symbol: Al # 3
    coordinates: [  0.400000000000000,  0.000000000000000,  0.000000000000000 ]
    mass: 26.981538
    reduced_to: 1
  - symbol: Al # 4
    coordinates: [  0.600000000000000,  0.000000000000000,  0.000000000000000 ]
    mass: 26.981538
    reduced_to: 1
  - symbol: Al # 5
    coordinates: [  0.800000000000000,  0.000000000000000,  0.000000000000000 ]
    mass: 26.981538
    reduced_to: 1
  - symbol: Al # 6
    coordinates: [  0.000000000000000,  0.200000000000000,  0.000000000000000 ]
    mass: 26.981538
    reduced_to: 1
  - symbol: Al # 7
    coordinates: [  0.200000000000000,  0.200000000000000,  0.000000000000000 ]
    mass: 26.981538
    reduced_to: 1
  - symbol: Al # 8
    coordinates: [  0.400000000000000,  0.200000000000000,  0.000000000000000 ]
    mass: 26.981538
    reduced_to: 1
  - symbol: Al # 9
    coordinates: [  0.600000000000000,  0.200000000000000,  0.000000000000000 ]
    mass: 26.981538
    reduced_to: 1
  - symbol: Al # 10
    coordinates: [  0.800000000000000,  0.200000000000000,  0.000000000000000 ]
    mass: 26.981538
    reduced_to: 1
  - symbol: Al # 11
    coordinates: [  0.000000000000000,  0.400000000000000,  0.000000000000000 ]
    mass: 26.981538
    reduced_to: 1
  - symbol: Al # 12
    coordinates: [  0.200000000000000,  0.400000000000000,  0.000000000000000 ]
    mass: 26.981538
    reduced_to: 1
  - symbol: Al # 13
    coordinates: [  0.400000000000000,  0.400000000000000,  0.000000000000000 ]
    mass: 26.981538
    reduced_to: 1
  - symbol: Al # 14
    coordinates: [  0.600000000000000,  0.400000000000000,  0.000000000000000 ]
    mass: 26.981538
    reduced_to: 1
  - symbol: Al # 15
    coordinates: [  0.800000000000000,  0.400000000000000,  0.000000000000000 ]
    mass: 26.981538
    reduced_to: 1
  - symbol: Al # 16
    coordinates: [  0.000000000000000,  0.600000000000000,  0.000000000000000 ]
    mass: 26.981538
    reduced_to: 1
  - symbol: Al # 17
    coordinates: [  0.200000000000000,  0.600000000000000,  0.000000000000000 ]
    mass: 26.981538
    reduced_to: 1
  - symbol: Al # 18
    coordinates: [  0.400000000000000,  0.600000000000000,  0.000000000000000 ]
    mass: 26.981538
    reduced_to: 1
  - symbol: Al # 19
    coordinates: [  0.600000000000000,  0.600000000000000,  0.000000000000000 ]
    mass: 26.981538
    reduced_to: 1
  - symbol: Al # 20
    coordinates: [  0.800000000000000,  0.600000000000000,  0.000000000000000 ]
    mass: 26.981538
    reduced_to: 1
  - symbol: Al # 21
    coordinates: [  0.000000000000000,  0.800000000000000,  0.000000000000000 ]
    mass: 26.981538
    reduced_to: 1
  - symbol: Al # 22
    coordinates: [  0.200000000000000,  0.800000000000000,  0.000000000000000 ]
    mass: 26.981538
    reduced_to: 1
  - symbol: Al # 23
    coordinates: [  0.400000000000000,  0.800000000000000,  0.000000000000000 ]
    mass: 26.981538
    reduced_to: 1
  - symbol: Al # 24
    coordinates: [  0.600000000000000,  0.800000000000000,  0.000000000000000 ]
    mass: 26.981538
    reduced_to: 1
  - symbol: Al # 25
    coordinates: [  0.800000000000000,  0.800000000000000,  0.000000000000000 ]
    mass: 26.981538
    reduced_to: 1
  - symbol: Al # 26
    coordinates: [  0.000000000000000,  0.000000000000000,  0.200000000000000 ]
    mass: 26.981538
    reduced_to: 1
  - symbol: Al # 27
    coordinates: [  0.200000000000000,  0.000000000000000,  0.200000000000000 ]
    mass: 26.981538
    reduced_to: 1
  - symbol: Al # 28
    coordinates: [  0.400000000000000,  0.000000000000000,  0.200000000000000 ]
    mass: 26.981538
    reduced_to: 1
  - symbol: Al # 29
    coordinates: [  0.600000000000000,  0.000000000000000,  0.200000000000000 ]
    mass: 26.981538
    reduced_to: 1
  - symbol: Al # 30
    coordinates: [  0.800000000000000,  0.000000000000000,  0.200000000000000 ]
    mass: 26.981538
    reduced_to: 1
  - symbol: Al # 31
    coordinates: [  0.000000000000000,  0.200000000000000,  0.200000000000000 ]
    mass: 26.981538
    reduced_to: 1
  - symbol: Al # 32
    coordinates: [  0.200000000000000,  0.200000000000000,  0.200000000000000 ]
    mass: 26.981538
    reduced_to: 1
  - symbol: Al # 33
    coordinates: [  0.400000000000000,  0.200000000000000,  0.200000000000000 ]
    mass: 26.981538
    reduced_to: 1
  - symbol: Al # 34
    coordinates: [  0.600000000000000,  0.200000000000000,  0.200000000000000 ]
    mass: 26.981538
    reduced_to: 1
  - symbol: Al # 35
    coordinates: [  0.800000000000000,  0.200000000000000,  0.200000000000000 ]
    mass: 26.981538
    reduced_to: 1
  - symbol: Al # 36
    coordinates: [  0.000000000000000,  0.400000000000000,  0.200000000000000 ]
    mass: 26.981538
    reduced_to: 1
  - symbol: Al # 37
    coordinates: [  0.200000000000000,  0.400000000000000,  0.200000000000000 ]
    mass: 26.981538
    reduced_to: 1
  - symbol: Al # 38
    coordinates: [  0.400000000000000,  0.400000000000000,  0.200000000000000 ]
    mass: 26.981538
    reduced_to: 1
  - symbol: Al # 39
    coordinates: [  0.600000000000000,  0.400000000000000,  0.200000000000000 ]
    mass: 26.981538
    reduced_to: 1
  - symbol: Al # 40
    coordinates: [  0.800000000000000,  0.400000000000000,  0.200000000000000 ]
    mass: 26.981538
    reduced_to: 1
  - symbol: Al # 41
    coordinates: [  0.000000000000000,  0.600000000000000,  0.200000000000000 ]
    mass: 26.981538
    reduced_to: 1
  - symbol: Al # 42
    coordinates: [  0.200000000000000,  0.600000000000000,  0.200000000000000 ]
    mass: 26.981538
    reduced_to: 1
  - symbol: Al # 43
    coordinates: [  0.400000000000000,  0.600000000000000,  0.200000000000000 ]
    mass: 26.981538
    reduced_to: 1
  - symbol: Al # 44
    coordinates: [  0.600000000000000,  0.600000000000000,  0.200000000000000 ]
    mass: 26.981538
    reduced_to: 1
  - symbol: Al # 45
    coordinates: [  0.800000000000000,  0.600000000000000,  0.200000000000000 ]
    mass: 26.981538
    reduced_to: 1
  - symbol: Al # 46
    coordinates: [  0.000000000000000,  0.800000000000000,  0.200000000000000 ]
    mass: 26.981538
    reduced_to: 1
  - symbol: Al # 47
    coordinates: [  0.200000000000000,  0.800000000000000,  0.200000000000000 ]
    mass: 26.981538
    reduced_to: 1
  - symbol: Al # 48
    coordinates: [  0.400000000000000,  0.800000000000000,  0.200000000000000 ]
    mass: 26.981538
    reduced_to: 1
  - symbol: Al # 49
    coordinates: [  0.600000000000000,  0.800000000000000,  0.200000000000000 ]
    mass: 26.981538
    reduced_to: 1
  - symbol: Al # 50
    coordinates: [  0.800000000000000,  0.800000000000000,  0.200000000000000 ]
    mass: 26.981538
    reduced_to: 1
  - symbol: Al # 51
    coordinates: [  0.000000000000000,  0.000000000000000,  0.400000000000000 ]
    mass: 26.981538
    reduced_to: 1
  - symbol: Al # 52
    coordinates: [  0.200000000000000,  0.000000000000000,  0.400000000000000 ]
    mass: 26.981538
    reduced_to: 1
  - symbol: Al # 53
    coordinates: [  0.400000000000000,  0.000000000000000,  0.400000000000000 ]
    mass: 26.981538
    reduced_to: 1
  - symbol: Al # 54
    coordinates: [  0.600000000000000,  0.000000000000000,  0.400000000000000 ]
    mass: 26.981538
    reduced_to: 1
  - symbol: Al # 55
    coordinates: [  0.800000000000000,  0.000000000000000,  0.400000000000000 ]
    mass: 26.981538
    reduced_to: 1
  - symbol: Al # 56
    coordinates: [  0.000000000000000,  0.200000000000000,  0.400000000000000 ]
    mass: 26.981538
    reduced_to: 1
  - symbol: Al # 57
    coordinates: [  0.200000000000000,  0.200000000000000,  0.400000000000000 ]
    mass: 26.981538
    reduced_to: 1
  - symbol: Al # 58
    coordinates: [  0.400000000000000,  0.200000000000000,  0.400000000000000 ]
    mass: 26.981538
    reduced_to: 1
  - symbol: Al # 59
    coordinates: [  0.600000000000000,  0.200000000000000,  0.400000000000000 ]
    mass: 26.981538
    reduced_to: 1
  - symbol: Al # 60
    coordinates: [  0.800000000000000,  0.200000000000000,  0.400000000000000 ]
    mass: 26.981538
    reduced_to: 1
  - symbol: Al # 61
    coordinates: [  0.000000000000000,  0.400000000000000,  0.400000000000000 ]
    mass: 26.981538
    reduced_to: 1
  - symbol: Al # 62
    coordinates: [  0.200000000000000,  0.400000000000000,  0.400000000000000 ]
    mass: 26.981538
    reduced_to: 1
  - symbol: Al # 63
    coordinates: [  0.400000000000000,  0.400000000000000,  0.400000000000000 ]
    mass: 26.981538
    reduced_to: 1
  - symbol: Al # 64
    coordinates: [  0.600000000000000,  0.400000000000000,  0.400000000000000 ]
    mass: 26.981538
    reduced_to: 1
  - symbol: Al # 65
    coordinates: [  0.800000000000000,  0.400000000000000,  0.400000000000000 ]
    mass: 26.981538
    reduced_to: 1
  - symbol: Al # 66
    coordinates: [  0.000000000000000,  0.600000000000000,  0.400000000000000 ]
    mass: 26.981538
    reduced_to: 1
  - symbol: Al # 67
    coordinates: [  0.200000000000000,  0.600000000000000,  0.400000000000000 ]
    mass: 26.981538
    reduced_to: 1
  - symbol: Al # 68
    coordinates: [  0.400000000000000,  0.600000000000000,  0.400000000000000 ]
    mass: 26.981538
    reduced_to: 1
  - symbol: Al # 69
    coordinates: [  0.600000000000000,  0.600000000000000,  0.400000000000000 ]
    mass: 26.981538
    reduced_to: 1
  - symbol: Al # 70
    coordinates: [  0.800000000000000,  0.600000000000000,  0.400000000000000 ]
    mass: 26.981538
    reduced_to: 1
  - symbol: Al # 71
    coordinates: [  0.000000000000000,  0.800000000000000,  0.400000000000000 ]
    mass: 26.981538
    reduced_to: 1
  - symbol: Al # 72
    coordinates: [  0.200000000000000,  0.800000000000000,  0.400000000000000 ]
    mass: 26.981538
    reduced_to: 1
  - symbol: Al # 73
    coordinates: [  0.400000000000000,  0.800000000000000,  0.400000000000000 ]
    mass: 26.981538
    reduced_to: 1
  - symbol: Al # 74
    coordinates: [  0.600000000000000,  0.800000000000000,  0.400000000000000 ]
    mass: 26.981538
    reduced_to: 1
  - symbol: Al # 75
    coordinates: [  0.800000000000000,  0.800000000000000,  0.400000000000000 ]
    mass: 26.981538
    reduced_to: 1
  - symbol: Al # 76
    coordinates: [  0.000000000000000,  0.000000000000000,  0.600000000000000 ]
    mass: 26.981538
    reduced_to: 1
  - symbol: Al # 77
    coordinates: [  0.200000000000000,  0.000000000000000,  0.600000000000000 ]
    mass: 26.981538
    reduced_to: 1
  - symbol: Al # 78
    coordinates: [  0.400000000000000,  0.000000000000000,  0.600000000000000 ]
    mass: 26.981538
    reduced_to: 1
  - symbol: Al # 79
    coordinates: [  0.600000000000000,  0.000000000000000,  0.600000000000000 ]
    mass: 26.981538
    reduced_to: 1
  - symbol: Al # 80
    coordinates: [  0.800000000000000,  0.000000000000000,  0.600000000000000 ]
    mass: 26.981538
    reduced_to: 1
  - symbol: Al # 81
    coordinates: [  0.000000000000000,  0.200000000000000,  0.600000000000000 ]
    mass: 26.981538
    reduced_to: 1
  - symbol: Al # 82
    coordinates: [  0.200000000000000,  0.200000000000000,  0.600000000000000 ]
    mass: 26.981538
    reduced_to: 1
  - symbol: Al # 83
    coordinates: [  0.400000000000000,  0.200000000000000,  0.600000000000000 ]
    mass: 26.981538
    reduced_to: 1
  - symbol: Al # 84
    coordinates: [  0.600000000000000,  0.200000000000000,  0.600000000000000 ]
    mass: 26.981538
    reduced_to: 1
  - symbol: Al # 85
    coordinates: [  0.800000000000000,  0.200000000000000,  0.600000000000000 ]
    mass: 26.981538
    reduced_to: 1
  - symbol: Al # 86
    coordinates: [  0.000000000000000,  0.400000000000000,  0.600000000000000 ]
    mass: 26.981538
    reduced_to: 1
  - symbol: Al # 87
    coordinates: [  0.200000000000000,  0.400000000000000,  0.600000000000000 ]
    mass: 26.981538
    reduced_to: 1
  - symbol: Al # 88
    coordinates: [  0.400000000000000,  0.400000000000000,  0.600000000000000 ]
    mass: 26.981538
    reduced_to: 1
  - symbol: Al # 89
    coordinates: [  0.600000000000000,  0.400000000000000,  0.600000000000000 ]
    mass: 26.981538
    reduced_to: 1
  - symbol: Al # 90
    coordinates: [  0.800000000000000,  0.400000000000000,  0.600000000000000 ]
    mass: 26.981538
    reduced_to: 1
  - symbol: Al # 91
    coordinates: [  0.000000000000000,  0.600000000000000,  0.600000000000000 ]
    mass: 26.981538
    reduced_to: 1
  - symbol: Al # 92
    coordinates: [  0.200000000000000,  0.600000000000000,  0.600000000000000 ]
    mass: 26.981538
    reduced_to: 1
  - symbol: Al # 93
    coordinates: [  0.400000000000000,  0.600000000000000,  0.600000000000000 ]
    mass: 26.981538
    reduced_to: 1
  - symbol: Al # 94
    coordinates: [  0.600000000000000,  0.600000000000000,  0.600000000000000 ]
    mass: 26.981538
    reduced_to: 1
  - symbol: Al # 95
    coordinates: [  0.800000000000000,  0.600000000000000,  0.600000000000000 ]
    mass: 26.981538
    reduced_to: 1
  - symbol: Al # 96
    coordinates: [  0.000000000000000,  0.800000000000000,  0.600000000000000 ]
    mass: 26.981538
    reduced_to: 1
  - symbol: Al # 97
    coordinates: [  0.200000000000000,  0.800000000000000,  0.600000000000000 ]
    mass: 26.981538
    reduced_to: 1
  - symbol: Al # 98
    coordinates: [  0.400000000000000,  0.800000000000000,  0.600000000000000 ]
    mass: 26.981538
    reduced_to: 1
  - symbol: Al # 99
    coordinates: [  0.600000000000000,  0.800000000000000,  0.600000000000000 ]
    mass: 26.981538
    reduced_to: 1
  - symbol: Al # 100
    coordinates: [  0.800000000000000,  0.800000000000000,  0.600000000000000 ]
    mass: 26.981538
    reduced_to: 1
  - symbol: Al # 101
    coordinates: [  0.000000000000000,  0.000000000000000,  0.800000000000000 ]
    mass: 26.981538
    reduced_to: 1
  - symbol: Al # 102
    coordinates: [  0.200000000000000,  0.000000000000000,  0.800000000000000 ]
    mass: 26.981538
    reduced_to: 1
  - symbol: Al # 103
    coordinates: [  0.400000000000000,  0.000000000000000,  0.800000000000000 ]
    mass: 26.981538
    reduced_to: 1
  - symbol: Al # 104
    coordinates: [  0.600000000000000,  0.000000000000000,  0.800000000000000 ]
    mass: 26.981538
    reduced_to: 1
  - symbol: Al # 105
    coordinates: [  0.800000000000000,  0.000000000000000,  0.800000000000000 ]
    mass: 26.981538
    reduced_to: 1
  - symbol: Al # 106
    coordinates: [  0.000000000000000,  0.200000000000000,  0.800000000000000 ]
    mass: 26.981538
    reduced_to: 1
  - symbol: Al # 107
    coordinates: [  0.200000000000000,  0.200000000000000,  0.800000000000000 ]
    mass: 26.981538
    reduced_to: 1
  - symbol: Al # 108
    coordinates: [  0.400000000000000,  0.200000000000000,  0.800000000000000 ]
    mass: 26.981538
    reduced_to: 1
  - symbol: Al # 109
    coordinates: [  0.600000000000000,  0.200000000000000,  0.800000000000000 ]
    mass: 26.981538
    reduced_to: 1
  - symbol: Al # 110
    coordinates: [  0.800000000000000,  0.200000000000000,  0.800000000000000 ]
    mass: 26.981538
    reduced_to: 1
  - symbol: Al # 111
    coordinates: [  0.000000000000000,  0.400000000000000,  0.800000000000000 ]
    mass: 26.981538
    reduced_to: 1
  - symbol: Al # 112
    coordinates: [  0.200000000000000,  0.400000000000000,  0.800000000000000 ]
    mass: 26.981538
    reduced_to: 1
  - symbol: Al # 113
    coordinates: [  0.400000000000000,  0.400000000000000,  0.800000000000000 ]
    mass: 26.981538
    reduced_to: 1
  - symbol: Al # 114
    coordinates: [  0.600000000000000,  0.400000000000000,  0.800000000000000 ]
    mass: 26.981538
    reduced_to: 1
  - symbol: Al # 115
    coordinates: [  0.800000000000000,  0.400000000000000,  0.800000000000000 ]
    mass: 26.981538
    reduced_to: 1
  - symbol: Al # 116
    coordinates: [  0.000000000000000,  0.600000000000000,  0.800000000000000 ]
    mass: 26.981538
    reduced_to: 1
  - symbol: Al # 117
    coordinates: [  0.200000000000000,  0.600000000000000,  0.800000000000000 ]
    mass: 26.981538
    reduced_to: 1
  - symbol: Al # 118
    coordinates: [  0.400000000000000,  0.600000000000000,  0.800000000000000 ]
    mass: 26.981538
    reduced_to: 1
  - symbol: Al # 119
    coordinates: [  0.600000000000000,  0.600000000000000,  0.800000000000000 ]
    mass: 26.981538
    reduced_to: 1
  - symbol: Al # 120
    coordinates: [  0.800000000000000,  0.600000000000000,  0.800000000000000 ]
    mass: 26.981538
    reduced_to: 1
  - symbol: Al # 121
    coordinates: [  0.000000000000000,  0.800000000000000,  0.800000000000000 ]
    mass: 26.981538
    reduced_to: 1
  - symbol: Al # 122
    coordinates: [  0.200000000000000,  0.800000000000000,  0.800000000000000 ]
    mass: 26.981538
    reduced_to: 1
  - symbol: Al # 123
    coordinates: [  0.400000000000000,  0.800000000000000,  0.800000000000000 ]
    mass: 26.981538
    reduced_to: 1
  - symbol: Al # 124
    coordinates: [  0.600000000000000,  0.800000000000000,  0.800000000000000 ]
    mass: 26.981538
    reduced_to: 1
  - symbol: Al # 125
    coordinates: [  0.800000000000000,  0.800000000000000,  0.800000000000000 ]
    mass: 26.981538
    reduced_to: 1

displacements:
- atom:    1
  displacement:
    [   0.0000000000000000,  0.0070710678118655,  0.0070710678118655 ]
  forces:
  - [   0.0000016470439732, -0.0317905284464359, -0.0317899994552135 ]
  - [   0.0000010601015674,  0.0088741527870297,  0.0088740000501275 ]
  - [   0.0000008604911272,  0.0001069974823622,  0.0001066452969098 ]
  - [   0.0000005977490218,  0.0001153152843472,  0.0001154160345322 ]
  - [   0.0000026432135201,  0.0084802182391286,  0.0084803737699986 ]
  - [   0.0045525962486863, -0.0005165419424884,  0.0041931848973036 ]
  - [  -0.0000194835301954, -0.0002507923636585, -0.0001329812512267 ]
  - [   0.0000004311095836,  0.0000426162114309,  0.0000472609826829 ]
  - [   0.0000223287879635, -0.0001281890145037, -0.0002487336460035 ]
  - [  -0.0044716331176460,  0.0041339593008161, -0.0004979532677680 ]
  - [   0.0000151366621139,  0.0000832041041576,  0.0000905106135178 ]
  - [   0.0000220678066398,  0.0000053350377129,  0.0000229304459936 ]
  - [  -0.0000259402149823,  0.0000192091174540,  0.0000049363625294 ]
  - [  -0.0000215999971260,  0.0000902637548279,  0.0000808055629022 ]
  - [   0.0000015306668502, -0.0002298397303093, -0.0002241914626211 ]
  - [   0.0000218769419007,  0.0000813628284959,  0.0000947591979639 ]
  - [  -0.0000011824249668, -0.0002268720854772, -0.0002310140262125 ]
  - [  -0.0000165181263583,  0.0000900993327377,  0.0000837727784528 ]
  - [  -0.0000222350936383,  0.0000227323962463,  0.0000083695977082 ]
  - [   0.0000260852939391,  0.0000030718128983,  0.0000197609133465 ]
  - [   0.0044703250750899, -0.0004955268814228,  0.0041326149366796 ]
  - [  -0.0045528900809586,  0.0041938791982830, -0.0005173421232030 ]
  - [   0.0000185028529813, -0.0001335412089247, -0.0002491455816198 ]
  - [  -0.0000023662505555,  0.0000483289441036,  0.0000432115703006 ]
  - [  -0.0000226762713282, -0.0002476742083672, -0.0001332939718850 ]
  - [   0.0045524016022682,  0.0041930666193366, -0.0005162864108570 ]
  - [  -0.0000192912211787, -0.0001329654478468, -0.0002506132295821 ]
  - [   0.0000003883360478,  0.0000471219827887,  0.0000426636070188 ]
  - [   0.0000220273122977, -0.0002491485793144, -0.0001282672164962 ]
  - [  -0.0044717928394675, -0.0004982062382624,  0.0041340193711221 ]
  - [  -0.0001899684866657, -0.0000819001143100, -0.0000821480862214 ]
  - [   0.0000447448255727,  0.0000297444021271,  0.0000295028694381 ]
  - [  -0.0000470921550004,  0.0000331262599502,  0.0000329549075104 ]
  - [   0.0001854938600445, -0.0000834809325170, -0.0000847095361678 ]
  - [   0.0000008165043255, -0.0000078542216215, -0.0000080987119873 ]
  - [   0.0000324547618220, -0.0000010633229977,  0.0000129874624690 ]
  - [   0.0000024204764486, -0.0000167508715094, -0.0000127561161207 ]
  - [  -0.0000275570782833,  0.0000173891439772, -0.0000036048440961 ]
  - [   0.0000227022828767,  0.0000057927281887, -0.0000059072972363 ]
  - [  -0.0000181088907993, -0.0000061557966546,  0.0000101894875115 ]
  - [  -0.0001687224284979, -0.0000594877201365,  0.0000571035925532 ]
  - [   0.0001641446287977,  0.0000576132806600, -0.0000642707818770 ]
  - [   0.0000173950666067, -0.0000229511060752, -0.0000064204141381 ]
  - [  -0.0000027136684366,  0.0000183157244464,  0.0000238534703385 ]
  - [  -0.0000226617157750, -0.0000060033944465, -0.0000270768105111 ]
  - [  -0.0000000365434971, -0.0003705510462169, -0.0003260965459049 ]
  - [   0.0000001154949132,  0.0009939991869032, -0.0000102650592453 ]
  - [   0.0000005224010238, -0.0000427379200119, -0.0000093277139968 ]
  - [   0.0000000095751602, -0.0000147952032421, -0.0000471645907965 ]
  - [   0.0000002344368113, -0.0000062178241933,  0.0009870089124888 ]
  - [   0.0000156923870236,  0.0000902167084860,  0.0000842124718474 ]
  - [   0.0000219957655645,  0.0000229611414397,  0.0000053572784964 ]
  - [  -0.0000258220752585,  0.0000040107770474,  0.0000189425591088 ]
  - [  -0.0000222242797463,  0.0000811610079836,  0.0000937008153414 ]
  - [   0.0000012332147890, -0.0002250000834465, -0.0002304656227352 ]
  - [   0.0000323657077388,  0.0000130576718220, -0.0000012211312423 ]
  - [   0.0000024683249649, -0.0000126995473693, -0.0000164656012203 ]
  - [  -0.0000272925863101, -0.0000037194949982,  0.0000173079952219 ]
  - [   0.0000226341544476, -0.0000061560640461,  0.0000055724649428 ]
  - [  -0.0000179477610800,  0.0000100286451925, -0.0000058483929024 ]
  - [   0.0000066422071541, -0.0000107159266918, -0.0000107449795905 ]
  - [  -0.0000082820733951, -0.0000067486744229, -0.0000067025302997 ]
  - [  -0.0000165192595887,  0.0000044345524657,  0.0000042339906940 ]
  - [  -0.0000022536951292,  0.0000042701558414,  0.0000041046969272 ]
  - [   0.0000118213083624,  0.0000093873841251,  0.0000097398351500 ]
  - [   0.0000002005108399,  0.0000722765253158,  0.0000708089428372 ]
  - [   0.0000001225344022, -0.0000030777446227,  0.0000252993977483 ]
  - [  -0.0000001633634383, -0.0000169986597029,  0.0000041356179281 ]
  - [  -0.0000000727977749,  0.0000043682721298, -0.0000128691717691 ]
  - [  -0.0000000128438842,  0.0000308682501782, -0.0000062542239903 ]
  - [  -0.0001641983981244,  0.0000570650845475, -0.0000637553966953 ]
  - [  -0.0000170955900103, -0.0000228871613217, -0.0000057443048718 ]
  - [   0.0000021093619580,  0.0000184188156709,  0.0000230715813814 ]
  - [   0.0000226214651775, -0.0000059304202296, -0.0000269652318821 ]
  - [   0.0001698458072497, -0.0000564455585845,  0.0000526952098880 ]
  - [   0.0000214534084080,  0.0000946322325035,  0.0000813333099359 ]
  - [  -0.0000014300312614, -0.0002312670694664, -0.0002269744582009 ]
  - [  -0.0000156892965606,  0.0000838193664094,  0.0000893984470167 ]
  - [  -0.0000219956473302,  0.0000085638293967,  0.0000225648127525 ]
  - [   0.0000267121249635,  0.0000199748519663,  0.0000030868832255 ]
  - [  -0.0001688576594461,  0.0000569905641896, -0.0000593377626501 ]
  - [   0.0001641778944759, -0.0000644050742267,  0.0000577986284043 ]
  - [   0.0000170744679053, -0.0000065606400312, -0.0000226103929890 ]
  - [  -0.0000023957618396,  0.0000236046598729,  0.0000183540960279 ]
  - [  -0.0000227659620577, -0.0000269728971034, -0.0000061889550125 ]
  - [   0.0000002806464181,  0.0000706596620148,  0.0000721593678463 ]
  - [   0.0000001596254151,  0.0000256147723121, -0.0000028411850508 ]
  - [   0.0000001023145160,  0.0000043713989726, -0.0000169366649061 ]
  - [   0.0000001960015652, -0.0000127878956846,  0.0000042095362005 ]
  - [   0.0000003457735147, -0.0000063540555857,  0.0000309439928969 ]
  - [   0.0000086217187345, -0.0000082706055764, -0.0000080108702605 ]
  - [   0.0000159890332725,  0.0000041521616367,  0.0000045805845730 ]
  - [   0.0000025428780646,  0.0000041907624109,  0.0000041690836952 ]
  - [  -0.0000114651302283,  0.0000099754688563,  0.0000098290856840 ]
  - [  -0.0000036558922147, -0.0000095077593869, -0.0000097089850897 ]
  - [   0.0000287553557428,  0.0000165873170772, -0.0000016717804101 ]
  - [  -0.0000209261415876,  0.0000050934067986, -0.0000062351755332 ]
  - [   0.0000190902737813, -0.0000062657618400,  0.0000104493119579 ]
  - [  -0.0000314146527671,  0.0000027703135856,  0.0000136907437991 ]
  - [  -0.0000003892073437, -0.0000155087636813, -0.0000189903221326 ]
  - [   0.0044705336913466,  0.0041327201761305, -0.0004955083713867 ]
  - [  -0.0045526293106377, -0.0005172480596229,  0.0041937110945582 ]
  - [   0.0000185258286365, -0.0002489257894922, -0.0001335307315458 ]
  - [  -0.0000020910556486,  0.0000434459725511,  0.0000481657298224 ]
  - [  -0.0000227341733989, -0.0001331993116764, -0.0002478516544215 ]
  - [  -0.0000000194195309, -0.0003261642996222, -0.0003707686555572 ]
  - [   0.0000003835957614, -0.0000100017641671,  0.0009939582087100 ]
  - [   0.0000003749955795, -0.0000093387006928, -0.0000423218989454 ]
  - [  -0.0000000244071998, -0.0000474590342492, -0.0000150391224452 ]
  - [   0.0000004394169082,  0.0009871992515400, -0.0000062376821006 ]
  - [  -0.0001634846848901, -0.0000636030163150,  0.0000577350001549 ]
  - [  -0.0000170593266375, -0.0000061214013840, -0.0000227667424042 ]
  - [   0.0000021972591639,  0.0000231087924476,  0.0000185273729585 ]
  - [   0.0000227562704822, -0.0000267088798864, -0.0000060622387537 ]
  - [   0.0001700131833786,  0.0000531759287696, -0.0000566384769627 ]
  - [   0.0000290109273919, -0.0000019522994990,  0.0000127242456074 ]
  - [  -0.0000211033893720, -0.0000054019637901,  0.0000059534577304 ]
  - [   0.0000194172971533,  0.0000105871367850, -0.0000064608047978 ]
  - [  -0.0000312691990985,  0.0000137885945151,  0.0000027293717721 ]
  - [  -0.0000007163707778, -0.0000182504409167, -0.0000151216536324 ]
  - [  -0.0001896306639537, -0.0000825442839414, -0.0000818523767521 ]
  - [  -0.0000040471641114, -0.0000080200952652, -0.0000082983751781 ]
  - [   0.0001865203375928, -0.0000795735832071, -0.0000798928886070 ]
  - [  -0.0000500889400428,  0.0000302643456962,  0.0000303477008856 ]
  - [   0.0000432487577200,  0.0000278558800346,  0.0000281496686512 ]

force_constants:
  format: "full"
  shape: [ 125, 125 ]
  elements:
  - # (1, 1)
    - [     4.495822268476189,    -0.000000000000000,     0.000000000000000 ]
    - [    -0.000000000000000,     4.495822268476186,     0.000000000000000 ]
    - [     0.000000000000000,     0.000000000000000,     4.495822268476186 ]
  - # (1, 2)
    - [     0.071676139308288,     0.000000000000000,     0.000000000000000 ]
    - [    -0.000000000000000,    -0.588863651777380,    -0.638138479227789 ]
    - [    -0.000000000000000,    -0.638138479227789,    -0.588863651777380 ]
  - # (1, 3)
    - [    -0.011661428132471,    -0.000000000000000,     0.000000000000000 ]
    - [     0.000000000000000,    -0.012938788585974,    -0.002728200920171 ]
    - [     0.000000000000000,    -0.002728200920171,    -0.012938788585974 ]
  - # (1, 4)
    - [    -0.011661428132471,    -0.000000000000000,     0.000000000000000 ]
    - [     0.000000000000000,    -0.012938788585974,    -0.002728200920171 ]
    - [     0.000000000000000,    -0.002728200920171,    -0.012938788585974 ]
  - # (1, 5)