# Tetrahedron method
       -0.9329167647        0.0000000000
       -0.8769417490        0.0000000000
       -0.8209667333        0.0000000000
       -0.7649917176        0.0000000000
       -0.7090167019        0.0000000000
       -0.6530416862        0.0000000000
       -0.5970666705        0.0000000000
       -0.5410916548        0.0000000000
       -0.4851166391        0.0000000000
       -0.4291416233        0.0000000000
       -0.3731666076        0.0000000000
       -0.3171915919        0.0000000000
       -0.2612165762        0.0000000000
       -0.2052415605        0.0000000000
       -0.1492665448        0.0000000000
       -0.0932915291        0.0000000000
       -0.0373165134        0.0000000000
        0.0186585023        0.0000024476
        0.0746335180        0.0000391609
        0.1306085337        0.0001199302
        0.1865835495        0.0002447556
        0.2425585652        0.0004136369
        0.2985335809        0.0006265742
        0.3545085966        0.0011302519
        0.4104836123        0.0017721308
        0.4664586280        0.0022596898
        0.5224336437        0.0027845676
        0.5784086594        0.0034291588
        0.6343836751        0.0042490224
        0.6903586908        0.0051732149
        0.7463337065        0.0061376903
        0.8023087223        0.0070889807
        0.8582837380        0.0081798514
        0.9142587537        0.0093056908
        0.9702337694        0.0105762251
        1.0262087851        0.0118391064
        1.0821838008        0.0133141071
        1.1381588165        0.0147867900
        1.1941338322        0.0162956053
        1.2501088479        0.0179744500
        1.3060838636        0.0199007022
        1.3620588793        0.0218559571
        1.4180338951        0.0237833570
        1.4740089108        0.0257140282
        1.5299839265        0.0279045277
        1.5859589422        0.0303304100
        1.6419339579        0.0327273931
        1.6979089736        0.0351635965
        1.7538839893        0.0377582684
        1.8098590050        0.0406833203
        1.8658340207        0.0436612136
        1.9218090364        0.0466761015
        1.9777840521        0.0497347526
        2.0337590679        0.0530903302
        2.0897340836        0.0565903711
        2.1457090993        0.0601428829
        2.2016841150        0.0638369337
        2.2576591307        0.0679086163
        2.3136341464        0.0720257540
        2.3696091621        0.0762715275
        2.4255841778        0.0807411013
        2.4815591935        0.0855231593
        2.5375342092        0.0903248675
        2.5935092249        0.0951700608
        2.6494842407        0.1005383712
        2.7054592564        0.1060952750
        2.7614342721        0.1117756864
        2.8174092878        0.1175600726
        2.8733843035        0.1240098126
        2.9293593192        0.1306604712
        2.9853343349        0.1372524272
        3.0413093506        0.1442462173
        3.0972843663        0.1516540077
        3.1532593820        0.1594433215
        3.2092343977        0.1673076036
        3.2652094135        0.1757598699
        3.3211844292        0.1845307599
        3.3771594449        0.1937993256
        3.4331344606        0.2037392147
        3.4891094763        0.2138982329
        3.5450844920        0.2241191969
        3.6010595077        0.2355450910
        3.6570345234        0.2475700311
        3.7130095391        0.2599345108
        3.7689845548        0.2734595525
        3.8249595705        0.2876480115
        3.8809345863        0.3024981474
        3.9369096020        0.3191769817
        3.9928846177        0.3371575362
        4.0488596334        0.3555989197
        4.1048346491        0.3770759310
        4.1608096648        0.4001704884
        4.2167846805        0.4276344856
        4.2727596962        0.4597261080
        4.3287347119        0.4989470472
        4.3847097276        0.5643762168
        4.4406847433        0.6228547643
        4.4966597591        0.6309604334
        4.5526347748        0.6337047917
        4.6086097905        0.6384152350
        4.6645848062        0.6411942859
        4.7205598219        0.6459076082
        4.7765348376        0.6500880645
        4.8325098533        0.6529880433
        4.8884848690        0.6576640094
        4.9444598847        0.6607502859
        5.0004349004        0.6648631814
        5.0564099162        0.6675034915
        5.1123849319        0.6726466489
        5.1683599476        0.6766279166
        5.2243349633        0.6804630518
        5.2803099790        0.6842045282
        5.3362849947        0.6879551063
        5.3922600104        0.6931624527
        5.4482350261        0.6966025832
        5.5042100418        0.7023175073
        5.5601850575        0.7067461007
        5.6161600732        0.7132473702
        5.6721350890        0.7208430177
        5.7281101047        0.7272383661
        5.7840851204        0.7368427244
        5.8400601361        0.6981777486
        5.8960351518        0.6065843901
        5.9520101675        0.5586811538
        6.0079851832        0.5288520834
        6.0639601989        0.4980070353
        6.1199352146        0.4747005801
        6.1759102303        0.4524714934
        6.2318852460        0.4331920749
        6.2878602618        0.4170798721
        6.3438352775        0.3953676616
        6.3998102932        0.3722998189
        6.4557853089        0.3443190995
        6.5117603246        0.3448198589
        6.5677353403        0.3438715811
        6.6237103560        0.3444846276
        6.6796853717        0.3456294964
        6.7356603874        0.3456586272
        6.7916354031        0.3444011706
        6.8476104188        0.3438981221
        6.9035854346        0.3446849620
        6.9595604503        0.3440983269
        7.0155354660        0.3425705330
        7.0715104817        0.3414079469
        7.1274854974        0.3403377057
        7.1834605131        0.3386881968
        7.2394355288        0.3366322617
        7.2954105445        0.3339110984
        7.3513855602        0.3307857401
        7.4073605759        0.3270283535
        7.4633355916        0.3222944993
        7.5193106074        0.3168513939
        7.5752856231        0.3108958022
        7.6312606388        0.3006824728
        7.6872356545        0.2917967308
        7.7432106702        0.2820696655
        7.7991856859        0.2634327466
        7.8551607016        0.2194051022
        7.9111357173        0.2223978418
        7.9671107330        0.2351570854
        8.0230857487        0.2777879488
        8.0790607644        0.3327607691
        8.1350357802        0.3985933175
        8.1910107959        0.4691351004
        8.2469858116        0.5496949742
        8.3029608273        0.6566606386
        8.3589358430        0.8071618341
        8.4149108587        1.2229655111
        8.4708858744        1.1525757963
        8.5268608901        1.1966681974
        8.5828359058        1.1696979748
        8.6388109215        0.8510452619
        8.6947859372        0.7192317525
        8.7507609530        0.6194464664
        8.8067359687        0.5333338889
        8.8627109844        0.4430320316
        8.9186860001        0.3209848276
        8.9746610158        0.2941036040
        9.0306360315        0.2684974650
        9.0866110472        0.2406372577
        9.1425860629        0.2114427033
        9.1985610786        0.1795709419
        9.2545360943        0.1383082326
        9.3105111100        0.0731536319
        9.3664861258        0.0000000000
        9.4224611415        0.0000000000
        9.4784361572        0.0000000000
        9.5344111729        0.0000000000
        9.5903861886        0.0000000000
        9.6463612043        0.0000000000
        9.7023362200        0.0000000000
        9.7583112357        0.0000000000
        9.8142862514        0.0000000000
        9.8702612671        0.0000000000
        9.9262362829        0.0000000000
        9.9822112986        0.0000000000
       10.0381863143        0.0000000000
       10.0941613300        0.0000000000
       10.1501363457        0.0000000000
       10.2061113614        0.0000000000
       10.2620863771        0.0000000000
