nqpoint: 467    
npath: 6      
segment_nqpoint:
- 101
- 71
- 71
- 87
- 87
- 50
labels:
- [ '$\Gamma$', '$\mathrm{H}$' ]
- [ '$\mathrm{H}$', '$\mathrm{N}$' ]
- [ '$\mathrm{N}$', '$\Gamma$' ]
- [ '$\Gamma$', '$\mathrm{P}$' ]
- [ '$\mathrm{P}$', '$\mathrm{H}$' ]
- [ '$\mathrm{P}$', '$\mathrm{N}$' ]
reciprocal_lattice:
- [  -0.00000000,   0.34843206,   0.34843206 ] # a*
- [   0.34843206,   0.00000000,   0.34843206 ] # b*
- [   0.34843206,   0.34843206,   0.00000000 ] # c*
natom: 1      
lattice:
- [    -1.435000000000000,     1.435000000000000,     1.435000000000000 ] # a
- [     1.435000000000000,    -1.435000000000000,     1.435000000000000 ] # b
- [     1.435000000000000,     1.435000000000000,    -1.435000000000000 ] # c
points:
- symbol: Fe # 1
  coordinates: [  0.000000000000000,  0.000000000000000,  0.000000000000000 ]
  mass: 55.845000

phonon:
- q-position: [    0.0000000,    0.0000000,    0.0000000 ]
  distance:    0.0000000
  band:
  - # 1
    frequency:    0.0000000934
    eigenvector:
    - # atom 1
      - [ -0.01871453819893, -0.00000000000000 ]
      - [  0.99975873424213,  0.00000000000000 ]
      - [ -0.01149953766797,  0.00000000000000 ]
  - # 2
    frequency:    0.0000001870
    eigenvector:
    - # atom 1
      - [  0.99974459275708,  0.00000000000000 ]
      - [  0.01885754187369,  0.00000000000000 ]
      - [  0.01245561590063,  0.00000000000000 ]
  - # 3
    frequency:    0.0000002700
    eigenvector:
    - # atom 1
      - [ -0.01266946380012,  0.00000000000000 ]
      - [  0.01126349950319,  0.00000000000000 ]
      - [  0.99985629880796,  0.00000000000000 ]

- q-position: [    0.0050000,   -0.0050000,    0.0050000 ]
  distance:    0.0034843
  band:
  - # 1
    frequency:    0.1100567808
    eigenvector:
    - # atom 1
      - [  0.99944684647928,  0.00000000000000 ]
      - [ -0.00000000000045,  0.00000000000000 ]
      - [ -0.03325659427281,  0.00000000000000 ]
  - # 2
    frequency:    0.1100567808
    eigenvector:
    - # atom 1
      - [  0.03325659427281,  0.00000000000000 ]
      - [ -0.00000000000005,  0.00000000000000 ]
      - [  0.99944684647928, -0.00000000000007 ]
  - # 3
    frequency:    0.1875964946
    eigenvector:
    - # atom 1
      - [  0.00000000000045,  0.00000000000000 ]
      - [  0.99999577476988, -0.00290696446154 ]
      - [  0.00000000000003,  0.00000000000000 ]

- q-position: [    0.0100000,   -0.0100000,    0.0100000 ]
  distance:    0.0069686
  band:
  - # 1
    frequency:    0.2201317436
    eigenvector:
    - # atom 1
      - [  0.99998901019907,  0.00000000000000 ]
      - [ -0.00000000000019, -0.00000000000000 ]
      - [ -0.00000000000000, -0.00468822792599 ]
  - # 2
    frequency:    0.2201317436
    eigenvector:
    - # atom 1
      - [  0.00468822792599,  0.00000000000000 ]
      - [ -0.00000000000000,  0.00000000000000 ]
      - [  0.00000000000104,  0.99998901019907 ]
  - # 3
    frequency:    0.3750459124
    eigenvector:
    - # atom 1
      - [  0.00000000000019,  0.00000000000000 ]
      - [  1.00000000000000, -0.00000000000000 ]
      - [ -0.00000000000000, -0.00000000000000 ]

- q-position: [    0.0150000,   -0.0150000,    0.0150000 ]
  distance:    0.0104530
  band:
  - # 1
    frequency:    0.3302428301
    eigenvector:
    - # atom 1
      - [  0.99993176840694,  0.00000000000000 ]
      - [ -0.00000000000004, -0.00000000000000 ]
      - [ -0.01133276480744, -0.00283319120186 ]
  - # 2
    frequency:    0.3302428301
    eigenvector:
    - # atom 1
      - [  0.01168154658284,  0.00000000000000 ]
      - [ -0.00000000000000, -0.00000000000000 ]
      - [  0.97007630577705,  0.24251907644428 ]
  - # 3
    frequency:    0.5622011977
    eigenvector:
    - # atom 1
      - [  0.00000000000004,  0.00000000000000 ]
      - [  0.99999187054658,  0.00403222528446 ]
      - [  0.00000000000000,  0.00000000000000 ]

- q-position: [    0.0200000,   -0.0200000,    0.0200000 ]
  distance:    0.0139373
  band:
  - # 1
    frequency:    0.4404075036
    eigenvector:
    - # atom 1
      - [ -0.01970503413066,  0.00000000000000 ]
      - [ -0.00000000000000,  0.00000000000000 ]
      - [  0.99208521302987, -0.12401065162874 ]
  - # 2
    frequency:    0.4404075036
    eigenvector:
    - # atom 1
      - [  0.99980583696531,  0.00000000000000 ]
      - [ -0.00000000000000, -0.00000000000000 ]
      - [  0.01955286942775, -0.00244410867847 ]
  - # 3
    frequency:    0.7489153475
    eigenvector:
    - # atom 1
      - [  0.00000000000000,  0.00000000000000 ]
      - [  0.97014250014533,  0.24253562503633 ]
      - [  0.00000000000000,  0.00000000000000 ]

- q-position: [    0.0250000,   -0.0250000,    0.0250000 ]
  distance:    0.0174216
  band:
  - # 1
    frequency:    0.5506425137
    eigenvector:
    - # atom 1
      - [  0.07500411203804,  0.00000000000000 ]
      - [ -0.00000000000000,  0.00000000000000 ]
      - [  0.98948285267805, -0.12368535658476 ]
  - # 2
    frequency:    0.5506425137
    eigenvector:
    - # atom 1
      - [  0.99718322447652,  0.00000000000000 ]
      - [  0.00000000000001, -0.00000000000000 ]
      - [ -0.07442492103790,  0.00930311512974 ]
  - # 3
    frequency:    0.9350414627
    eigenvector:
    - # atom 1
      - [ -0.00000000000001,  0.00000000000000 ]
      - [  0.99997835942825, -0.00657880499624 ]
      - [  0.00000000000000, -0.00000000000000 ]

- q-position: [    0.0300000,   -0.0300000,    0.0300000 ]
  distance:    0.0209059
  band:
  - # 1
    frequency:    0.6609636671
    eigenvector:
    - # atom 1
      - [  0.99875531804546,  0.00000000000000 ]
      - [  0.00000000000000,  0.00000000000000 ]
      - [ -0.04987799791413, -0.00000000000000 ]
  - # 2
    frequency:    0.6609636671
    eigenvector:
    - # atom 1
      - [ -0.04987799791413,  0.00000000000000 ]
      - [  0.00000000000000, -0.00000000000000 ]
      - [ -0.99875531804546, -0.00000000000000 ]
  - # 3
    frequency:    1.1204328273
    eigenvector:
    - # atom 1
      - [  0.00000000000000,  0.00000000000000 ]
      - [ -0.99719930988846, -0.07478994824163 ]
      - [ -0.00000000000000, -0.00000000000000 ]

- q-position: [    0.0350000,   -0.0350000,    0.0350000 ]
  distance:    0.0243902
  band:
  - # 1
    frequency:    0.7713856049
    eigenvector:
    - # atom 1
      - [  0.99995439323034,  0.00000000000000 ]
      - [  0.00000000000000,  0.00000000000000 ]
      - [ -0.00926531593500, -0.00231632898375 ]
  - # 2
    frequency:    0.7713856049
    eigenvector:
    - # atom 1
      - [ -0.00955046906368,  0.00000000000000 ]
      - [ -0.00000000000000,  0.00000000000000 ]
      - [ -0.97009825507979, -0.24252456376995 ]
  - # 3
    frequency:    1.3049430266
    eigenvector:
    - # atom 1
      - [  0.00000000000000,  0.00000000000000 ]
      - [ -0.99944490697915, -0.03331483023264 ]
      - [  0.00000000000000,  0.00000000000000 ]

- q-position: [    0.0400000,   -0.0400000,    0.0400000 ]
  distance:    0.0278746
  band:
  - # 1
    frequency:    0.8819215885
    eigenvector:
    - # atom 1
      - [ -0.01068906278419,  0.00000000000000 ]
      - [  0.00000000000000, -0.00000000000000 ]
      - [ -0.97008707623075,  0.24252176905769 ]
  - # 2
    frequency:    0.8819215885
    eigenvector:
    - # atom 1
      - [  0.99994287033650,  0.00000000000000 ]
      - [ -0.00000000000000,  0.00000000000000 ]
      - [ -0.01036991409367,  0.00259247852342 ]
  - # 3
    frequency:    1.4884261072
    eigenvector:
    - # atom 1
      - [ -0.00000000000000,  0.00000000000000 ]
      - [ -0.99745869983073,  0.07124704998791 ]
      - [ -0.00000000000000, -0.00000000000000 ]

- q-position: [    0.0450000,   -0.0450000,    0.0450000 ]
  distance:    0.0313589
  band:
  - # 1
    frequency:    0.9925832952
    eigenvector:
    - # atom 1
      - [  0.99977678842911,  0.00000000000000 ]
      - [  0.00000000000000, -0.00000000000000 ]
      - [ -0.00000000000000,  0.02112754880176 ]
  - # 2
    frequency:    0.9925832952
    eigenvector:
    - # atom 1
      - [ -0.02112754880176,  0.00000000000000 ]
      - [ -0.00000000000000, -0.00000000000000 ]
      - [ -0.00000000000003,  0.99977678842911 ]
  - # 3
    frequency:    1.6707367895
    eigenvector:
    - # atom 1
      - [  0.00000000000000,  0.00000000000000 ]
      - [ -1.00000000000000, -0.00000000000000 ]
      - [ -0.00000000000000, -0.00000000000000 ]

- q-position: [    0.0500000,   -0.0500000,    0.0500000 ]
  distance:    0.0348432
  band:
  - # 1
    frequency:    1.1033806260
    eigenvector:
    - # atom 1
      - [  0.99659169940495,  0.00000000000000 ]
      - [ -0.00000000000000,  0.00000000000000 ]
      - [ -0.08185531506989, -0.01023191438374 ]
  - # 2
    frequency:    1.1033806260
    eigenvector:
    - # atom 1
      - [  0.08249233102020,  0.00000000000000 ]
      - [ -0.00000000000000, -0.00000000000000 ]
      - [  0.98889589543601,  0.12361198692950 ]
  - # 3
    frequency:    1.8517307322
    eigenvector:
    - # atom 1
      - [  0.00000000000000,  0.00000000000000 ]
      - [  0.99875233887784, -0.04993761694389 ]
      - [  0.00000000000000,  0.00000000000000 ]

- q-position: [    0.0550000,   -0.0550000,    0.0550000 ]
  distance:    0.0383275
  band:
  - # 1
    frequency:    1.2143215243
    eigenvector:
    - # atom 1
      - [  0.99945977012851,  0.00000000000000 ]
      - [  0.00000000000000,  0.00000000000000 ]
      - [ -0.03275238099600, -0.00272936508300 ]
  - # 2
    frequency:    1.2143215243
    eigenvector:
    - # atom 1
      - [ -0.03286590778699,  0.00000000000000 ]
      - [ -0.00000000000000, -0.00000000000000 ]
      - [ -0.99600739445797, -0.08300061620483 ]
  - # 3
    frequency:    2.0312648550
    eigenvector:
    - # atom 1
      - [  0.00000000000000,  0.00000000000000 ]
      - [ -0.98287218693432, -0.18428853505019 ]
      - [  0.00000000000000, -0.00000000000000 ]

- q-position: [    0.0600000,   -0.0600000,    0.0600000 ]
  distance:    0.0418118
  band:
  - # 1
    frequency:    1.3254118101
    eigenvector:
    - # atom 1
      - [ -0.18005136757628,  0.00000000000000 ]
      - [ -0.00000000000000,  0.00000000000000 ]
      - [  0.95428766413188,  0.23857191603297 ]
  - # 2
    frequency:    1.3254118101
    eigenvector:
    - # atom 1
      - [  0.98365720910992,  0.00000000000000 ]
      - [ -0.00000000000000,  0.00000000000000 ]
      - [  0.17467548389504,  0.04366887097376 ]
  - # 3
    frequency:    2.2091977185
    eigenvector:
    - # atom 1
      - [  0.00000000000000,  0.00000000000000 ]
      - [  0.89442719099992, -0.44721359549996 ]
      - [  0.00000000000000,  0.00000000000000 ]

- q-position: [    0.0650000,   -0.0650000,    0.0650000 ]
  distance:    0.0452962
  band:
  - # 1
    frequency:    1.4366550266
    eigenvector:
    - # atom 1
      - [ -0.01755666540760,  0.00000000000000 ]
      - [  0.00000000000000,  0.00000000000000 ]
      - [  0.00000000000000, -0.99984586987183 ]
  - # 2
    frequency:    1.4366550266
    eigenvector:
    - # atom 1
      - [  0.99984586987183,  0.00000000000000 ]
      - [ -0.00000000000000, -0.00000000000000 ]
      - [  0.00000000000000, -0.01755666540760 ]
  - # 3
    frequency:    2.3853899592
    eigenvector:
    - # atom 1
      - [  0.00000000000000,  0.00000000000000 ]
      - [  0.98994949366117,  0.14142135623731 ]
      - [ -0.00000000000000,  0.00000000000000 ]

- q-position: [    0.0700000,   -0.0700000,    0.0700000 ]
  distance:    0.0487805
  band:
  - # 1
    frequency:    1.5480523037
    eigenvector:
    - # atom 1
      - [  0.04282423590049,  0.00000000000000 ]
      - [ -0.00000000000000, -0.00000000000000 ]
      - [  0.44680333141541,  0.89360666283082 ]
  - # 2
    frequency:    1.5480523037
    eigenvector:
    - # atom 1
      - [  0.99908262161822,  0.00000000000000 ]
      - [  0.00000000000000,  0.00000000000000 ]
      - [ -0.01915158051159, -0.03830316102319 ]
  - # 3
    frequency:    2.5597047796
    eigenvector:
    - # atom 1
      - [ -0.00000000000000,  0.00000000000000 ]
      - [  0.97618706018395,  0.21693045781866 ]
      - [  0.00000000000000,  0.00000000000000 ]

- q-position: [    0.0750000,   -0.0750000,    0.0750000 ]
  distance:    0.0522648
  band:
  - # 1
    frequency:    1.6596022358
    eigenvector:
    - # atom 1
      - [ -0.03283611903696,  0.00000000000000 ]
      - [  0.00000000000000,  0.00000000000000 ]
      - [ -0.98586201016656,  0.16431033502776 ]
  - # 2
    frequency:    1.6596022358
    eigenvector:
    - # atom 1
      - [  0.99946074924761,  0.00000000000000 ]
      - [ -0.00000000000000,  0.00000000000000 ]
      - [ -0.03238934830028,  0.00539822471671 ]
  - # 3
    frequency:    2.7320084851
    eigenvector:
    - # atom 1
      - [ -0.00000000000000,  0.00000000000000 ]
      - [ -0.44721359549996,  0.89442719099992 ]
      - [  0.00000000000000, -0.00000000000000 ]

- q-position: [    0.0800000,   -0.0800000,    0.0800000 ]
  distance:    0.0557491
  band:
  - # 1
    frequency:    1.7713007764
    eigenvector:
    - # atom 1
      - [  0.88914117307145,  0.00000000000000 ]
      - [  0.00000000000000,  0.00000000000000 ]
      - [ -0.43833292858693, -0.13149987857608 ]
  - # 2
    frequency:    1.7713007764
    eigenvector:
    - # atom 1
      - [  0.45763301273960,  0.00000000000000 ]
      - [  0.00000000000000,  0.00000000000000 ]
      - [  0.85164278684021,  0.25549283605206 ]
  - # 3
    frequency:    2.9021710630
    eigenvector:
    - # atom 1
      - [  0.00000000000000,  0.00000000000000 ]
      - [ -0.99926117463131, -0.03843312210120 ]
      - [  0.00000000000000, -0.00000000000000 ]

- q-position: [    0.0850000,   -0.0850000,    0.0850000 ]
  distance:    0.0592334
  band:
  - # 1
    frequency:    1.8831411488
    eigenvector:
    - # atom 1
      - [  0.99510099085673,  0.00000000000000 ]
      - [  0.00000000000000, -0.00000000000000 ]
      - [ -0.09871141825764, -0.00548396768098 ]
  - # 2
    frequency:    1.8831411488
    eigenvector:
    - # atom 1
      - [ -0.09886363333380,  0.00000000000000 ]
      - [ -0.00000000000000,  0.00000000000000 ]
      - [ -0.99356888680586, -0.05519827148921 ]
  - # 3
    frequency:    3.0700667953
    eigenvector:
    - # atom 1
      - [  0.00000000000000,  0.00000000000000 ]
      - [ -0.99227787671367,  0.12403473458921 ]
      - [ -0.00000000000000,  0.00000000000000 ]

- q-position: [    0.0900000,   -0.0900000,    0.0900000 ]
  distance:    0.0627178
  band:
  - # 1
    frequency:    1.9951137731
    eigenvector:
    - # atom 1
      - [  0.97888640215760,  0.00000000000000 ]
      - [  0.00000000000000,  0.00000000000000 ]
      - [ -0.11338350398396, -0.17007525597593 ]
  - # 2
    frequency:    1.9951137731
    eigenvector:
    - # atom 1
      - [ -0.20440501870296,  0.00000000000000 ]
      - [ -0.00000000000000,  0.00000000000000 ]
      - [ -0.54298847935903, -0.81448271903854 ]
  - # 3
    frequency:    3.2355748941
    eigenvector:
    - # atom 1
      - [  0.00000000000000,  0.00000000000000 ]
      - [ -0.99993544013680, -0.01136290272883 ]
      - [ -0.00000000000000,  0.00000000000000 ]

- q-position: [    0.0950000,   -0.0950000,    0.0950000 ]
  distance:    0.0662021
  band:
  - # 1
    frequency:    2.1072062097
    eigenvector:
    - # atom 1
      - [  0.99855388832956,  0.00000000000000 ]
      - [  0.00000000000000, -0.00000000000000 ]
      - [ -0.04300795909167, -0.03225596931875 ]
  - # 2
    frequency:    2.1072062097
    eigenvector:
    - # atom 1
      - [ -0.05375994886458,  0.00000000000000 ]
      - [  0.00000000000000,  0.00000000000000 ]
      - [ -0.79884311066365, -0.59913233299773 ]
  - # 3
    frequency:    3.3985801499
    eigenvector:
    - # atom 1
      - [  0.00000000000000,  0.00000000000000 ]
      - [ -0.97439119569462,  0.22485950669876 ]
      - [ -0.00000000000000, -0.00000000000000 ]

- q-position: [    0.1000000,   -0.1000000,    0.1000000 ]
  distance:    0.0696864
  band:
  - # 1
    frequency:    2.2194031183
    eigenvector:
    - # atom 1
      - [  0.00891007009420,  0.00000000000000 ]
      - [  0.00000000000000,  0.00000000000000 ]
      - [  0.89439168629898, -0.44719584314949 ]
  - # 2
    frequency:    2.2194031183
    eigenvector:
    - # atom 1
      - [  0.99996030453759,  0.00000000000000 ]
      - [  0.00000000000000,  0.00000000000000 ]
      - [ -0.00796940896597,  0.00398470448299 ]
  - # 3
    frequency:    3.5589735794
    eigenvector:
    - # atom 1
      - [ -0.00000000000000,  0.00000000000000 ]
      - [  0.99654575824488,  0.08304547985374 ]
      - [  0.00000000000000,  0.00000000000000 ]

- q-position: [    0.1050000,   -0.1050000,    0.1050000 ]
  distance:    0.0731707
  band:
  - # 1
    frequency:    2.3316862333
    eigenvector:
    - # atom 1
      - [  0.04065098394370,  0.00000000000000 ]
      - [ -0.00000000000000, -0.00000000000000 ]
      - [ -0.93555521454157, -0.35083320545309 ]
  - # 2
    frequency:    2.3316862333
    eigenvector:
    - # atom 1
      - [  0.99917340712431,  0.00000000000000 ]
      - [  0.00000000000000, -0.00000000000000 ]
      - [  0.03806270236338,  0.01427351338627 ]
  - # 3
    frequency:    3.7166530610
    eigenvector:
    - # atom 1
      - [  0.00000000000000,  0.00000000000000 ]
      - [ -0.99991344614170,  0.01315675587029 ]
      - [  0.00000000000000, -0.00000000000000 ]

- q-position: [    0.1100000,   -0.1100000,    0.1100000 ]
  distance:    0.0766551
  band:
  - # 1
    frequency:    2.4440343542
    eigenvector:
    - # atom 1
      - [  0.99922029748449,  0.00000000000000 ]
      - [  0.00000000000000, -0.00000000000000 ]
      - [  0.03830278251293,  0.00957569562823 ]
  - # 2
    frequency:    2.4440343542
    eigenvector:
    - # atom 1
      - [ -0.03948160451397,  0.00000000000000 ]
      - [ -0.00000000000000,  0.00000000000000 ]
      - [  0.96938607759757,  0.24234651939939 ]
  - # 3
    frequency:    3.8715239429
    eigenvector:
    - # atom 1
      - [ -0.00000000000000,  0.00000000000000 ]
      - [  0.99987404748360, -0.01587101662672 ]
      - [  0.00000000000000,  0.00000000000000 ]

- q-position: [    0.1150000,   -0.1150000,    0.1150000 ]
  distance:    0.0801394
  band:
  - # 1
    frequency:    2.5564233506
    eigenvector:
    - # atom 1
      - [  0.99938517565771,  0.00000000000000 ]
      - [  0.00000000000000, -0.00000000000000 ]
      - [ -0.03438009648386, -0.00687601929677 ]
  - # 2
    frequency:    2.5564233506
    eigenvector:
    - # atom 1
      - [ -0.03506095657008,  0.00000000000000 ]
      - [ -0.00000000000000, -0.00000000000000 ]
      - [ -0.97997779082193, -0.19599555816439 ]
  - # 3
    frequency:    4.0234996110
    eigenvector:
    - # atom 1
      - [  0.00000000000000,  0.00000000000000 ]
      - [ -1.00000000000000, -0.00000000000000 ]
      - [  0.00000000000000, -0.00000000000000 ]

- q-position: [    0.1200000,   -0.1200000,    0.1200000 ]
  distance:    0.0836237
  band:
  - # 1
    frequency:    2.6688261816
    eigenvector:
    - # atom 1
      - [  0.99920447706015,  0.00000000000000 ]
      - [  0.00000000000000, -0.00000000000000 ]
      - [ -0.02819940622551, -0.02819940622551 ]
  - # 2
    frequency:    2.6688261816
    eigenvector:
    - # atom 1
      - [ -0.03987998273499,  0.00000000000000 ]
      - [ -0.00000000000000, -0.00000000000000 ]
      - [ -0.70654426152119, -0.70654426152119 ]
  - # 3
    frequency:    4.1725020025
    eigenvector:
    - # atom 1
      - [  0.00000000000000,  0.00000000000000 ]
      - [ -0.99954117914538,  0.03028912664077 ]
      - [  0.00000000000000, -0.00000000000000 ]

- q-position: [    0.1250000,   -0.1250000,    0.1250000 ]
  distance:    0.0871080
  band:
  - # 1
    frequency:    2.7812129286
    eigenvector:
    - # atom 1
      - [  0.98807611163118,  0.00000000000000 ]
      - [  0.00000000000000,  0.00000000000000 ]
      - [ -0.14295404863286, -0.05718161945314 ]
  - # 2
    frequency:    2.7812129286
    eigenvector:
    - # atom 1
      - [ -0.15396622234701,  0.00000000000000 ]
      - [ -0.00000000000000,  0.00000000000000 ]
      - [ -0.91740563847009, -0.36696225538804 ]
  - # 3
    frequency:    4.3184620514
    eigenvector:
    - # atom 1
      - [  0.00000000000000,  0.00000000000000 ]
      - [ -0.99991344614170, -0.01315675587029 ]
      - [ -0.00000000000000,  0.00000000000000 ]

- q-position: [    0.1300000,   -0.1300000,    0.1300000 ]
  distance:    0.0905923
  band:
  - # 1
    frequency:    2.8935508410
    eigenvector:
    - # atom 1
      - [  0.99994656241554,  0.00000000000000 ]
      - [  0.00000000000000,  0.00000000000000 ]
      - [ -0.00807254883660, -0.00645803906928 ]
  - # 2
    frequency:    2.8935508410
    eigenvector:
    - # atom 1
      - [ -0.01033790662270,  0.00000000000000 ]
      - [  0.00000000000000,  0.00000000000000 ]
      - [ -0.78082708170008, -0.62466166536006 ]
  - # 3
    frequency:    4.4613200539
    eigenvector:
    - # atom 1
      - [  0.00000000000000,  0.00000000000000 ]
      - [ -1.00000000000000,  0.00000000000000 ]
      - [ -0.00000000000000,  0.00000000000000 ]

- q-position: [    0.1350000,   -0.1350000,    0.1350000 ]
  distance:    0.0940767
  band:
  - # 1
    frequency:    3.0058043938
    eigenvector:
    - # atom 1
      - [  0.10162608405683,  0.00000000000000 ]
      - [  0.00000000000000,  0.00000000000000 ]
      - [ -0.95654581810316, -0.27329880517233 ]
  - # 2
    frequency:    3.0058043938
    eigenvector:
    - # atom 1
      - [  0.99482266713182,  0.00000000000000 ]
      - [  0.00000000000000,  0.00000000000000 ]
      - [  0.09771591352560,  0.02791883243589 ]
  - # 3
    frequency:    4.6010259413
    eigenvector:
    - # atom 1
      - [  0.00000000000000,  0.00000000000000 ]
      - [ -0.99624058819568, -0.08662961636484 ]
      - [ -0.00000000000000,  0.00000000000000 ]

- q-position: [    0.1400000,   -0.1400000,    0.1400000 ]
  distance:    0.0975610
  band:
  - # 1
    frequency:    3.1179353566
    eigenvector:
    - # atom 1
      - [  0.01974350657864,  0.00000000000000 ]
      - [  0.00000000000000,  0.00000000000000 ]
      - [ -0.86807390241447, -0.49604222995113 ]
  - # 2
    frequency:    3.1179353566
    eigenvector:
    - # atom 1
      - [  0.99980507797669,  0.00000000000000 ]
      - [  0.00000000000000,  0.00000000000000 ]
      - [  0.01714216418839,  0.00979552239337 ]
  - # 3
    frequency:    4.7375394503
    eigenvector:
    - # atom 1
      - [  0.00000000000000,  0.00000000000000 ]
      - [ -0.99763032842298, -0.06880209161538 ]
      - [ -0.00000000000000, -0.00000000000000 ]

- q-position: [    0.1450000,   -0.1450000,    0.1450000 ]
  distance:    0.1010453
  band:
  - # 1
    frequency:    3.2299028733
    eigenvector:
    - # atom 1
      - [  0.99990214198445,  0.00000000000000 ]
      - [  0.00000000000000,  0.00000000000000 ]
      - [ -0.00339295511416,  0.01357182045665 ]
  - # 2
    frequency:    3.2299028733
    eigenvector:
    - # atom 1
      - [ -0.01398951231867,  0.00000000000000 ]
      - [ -0.00000000000000, -0.00000000000000 ]
      - [ -0.24251189098137,  0.97004756392546 ]
  - # 3
    frequency:    4.8708301824
    eigenvector:
    - # atom 1
      - [  0.00000000000000,  0.00000000000000 ]
      - [ -0.99979600162986, -0.02019789902283 ]
      - [ -0.00000000000000, -0.00000000000000 ]

- q-position: [    0.1500000,   -0.1500000,    0.1500000 ]
  distance:    0.1045296
  band:
  - # 1
    frequency:    3.3416635517
    eigenvector:
    - # atom 1
      - [  0.99952205339248,  0.00000000000000 ]
      - [  0.00000000000000, -0.00000000000000 ]
      - [ -0.01382508431864, -0.02765016863729 ]
  - # 2
    frequency:    3.3416635517
    eigenvector:
    - # atom 1
      - [ -0.03091382833115,  0.00000000000000 ]
      - [  0.00000000000000,  0.00000000000000 ]
      - [ -0.44699985127915, -0.89399970255830 ]
  - # 3
    frequency:    5.0008775448
    eigenvector:
    - # atom 1
      - [  0.00000000000000,  0.00000000000000 ]
      - [ -0.99854227327751,  0.05397525801500 ]
      - [ -0.00000000000000, -0.00000000000000 ]

- q-position: [    0.1550000,   -0.1550000,    0.1550000 ]
  distance:    0.1080139
  band:
  - # 1
    frequency:    3.4531715619
    eigenvector:
    - # atom 1
      - [  0.99914980912904,  0.00000000000000 ]
      - [  0.00000000000000,  0.00000000000000 ]
      - [ -0.03964067068921,  0.01132590591120 ]
  - # 2
    frequency:    3.4531715619
    eigenvector:
    - # atom 1
      - [ -0.04122691981461,  0.00000000000000 ]
      - [  0.00000000000000, -0.00000000000000 ]
      - [ -0.96070646875833,  0.27448756250238 ]
  - # 3
    frequency:    5.1276705689
    eigenvector:
    - # atom 1
      - [  0.00000000000000,  0.00000000000000 ]
      - [ -0.99980005998001, -0.01999600119960 ]
      - [ -0.00000000000000, -0.00000000000000 ]

- q-position: [    0.1600000,   -0.1600000,    0.1600000 ]
  distance:    0.1114983
  band:
  - # 1
    frequency:    3.5643787441
    eigenvector:
    - # atom 1
      - [  0.99725338400704,  0.00000000000000 ]
      - [  0.00000000000000, -0.00000000000000 ]
      - [ -0.05237216859414, -0.05237216859414 ]
  - # 2
    frequency:    3.5643787441
    eigenvector:
    - # atom 1
      - [ -0.07406543111672,  0.00000000000000 ]
      - [ -0.00000000000000,  0.00000000000000 ]
      - [ -0.70516463039261, -0.70516463039261 ]
  - # 3
    frequency:    5.2512076041
    eigenvector:
    - # atom 1
      - [  0.00000000000000,  0.00000000000000 ]
      - [ -0.99681527853612,  0.07974522228289 ]
      - [ -0.00000000000000,  0.00000000000000 ]

- q-position: [    0.1650000,   -0.1650000,    0.1650000 ]
  distance:    0.1149826
  band:
  - # 1
    frequency:    3.6752347237
    eigenvector:
    - # atom 1
      - [  0.99933792310806,  0.00000000000000 ]
      - [  0.00000000000000, -0.00000000000000 ]
      - [ -0.03254185536274,  0.01627092768137 ]
  - # 2
    frequency:    3.6752347237
    eigenvector:
    - # atom 1
      - [ -0.03638290035252,  0.00000000000000 ]
      - [ -0.00000000000000, -0.00000000000000 ]
      - [ -0.89383501142524,  0.44691750571262 ]
  - # 3
    frequency:    5.3714958868
    eigenvector:
    - # atom 1
      - [  0.00000000000000,  0.00000000000000 ]
      - [ -1.00000000000000, -0.00000000000000 ]
      - [  0.00000000000000, -0.00000000000000 ]

- q-position: [    0.1700000,   -0.1700000,    0.1700000 ]
  distance:    0.1184669
  band:
  - # 1
    frequency:    3.7856870342
    eigenvector:
    - # atom 1
      - [  0.99955597762710,  0.00000000000000 ]
      - [  0.00000000000000, -0.00000000000000 ]
      - [ -0.02479241247040,  0.01652827498027 ]
  - # 2
    frequency:    3.7856870342
    eigenvector:
    - # atom 1
      - [ -0.02979677146816,  0.00000000000000 ]
      - [  0.00000000000000,  0.00000000000000 ]
      - [ -0.83168084539178,  0.55445389692785 ]
  - # 3
    frequency:    5.4885509884
    eigenvector:
    - # atom 1
      - [  0.00000000000000,  0.00000000000000 ]
      - [ -1.00000000000000,  0.00000000000000 ]
      - [ -0.00000000000000,  0.00000000000000 ]

- q-position: [    0.1750000,   -0.1750000,    0.1750000 ]
  distance:    0.1219512
  band:
  - # 1
    frequency:    3.8956812472
    eigenvector:
    - # atom 1
      - [  0.99983537608297,  0.00000000000000 ]
      - [  0.00000000000000, -0.00000000000000 ]
      - [ -0.01814444082956,  0.00000000000000 ]
  - # 2
    frequency:    3.8956812472
    eigenvector:
    - # atom 1
      - [ -0.01814444082956,  0.00000000000000 ]
      - [  0.00000000000000,  0.00000000000000 ]
      - [ -0.99983537608297,  0.00000000000000 ]
  - # 3
    frequency:    5.6023961472
    eigenvector:
    - # atom 1
      - [  0.00000000000000,  0.00000000000000 ]
      - [ -0.99854227327751,  0.05397525801500 ]
      - [ -0.00000000000000,  0.00000000000000 ]

- q-position: [    0.1800000,   -0.1800000,    0.1800000 ]
  distance:    0.1254355
  band:
  - # 1
    frequency:    4.0051611088
    eigenvector:
    - # atom 1
      - [  0.99991011870998,  0.00000000000000 ]
      - [  0.00000000000000,  0.00000000000000 ]
      - [ -0.01199181392097, -0.00599590696049 ]
  - # 2
    frequency:    4.0051611088
    eigenvector:
    - # atom 1
      - [ -0.01340725555041,  0.00000000000000 ]
      - [  0.00000000000000, -0.00000000000000 ]
      - [ -0.89434679873016, -0.44717339936508 ]
  - # 3
    frequency:    5.7130614944
    eigenvector:
    - # atom 1
      - [  0.00000000000000,  0.00000000000000 ]
      - [ -0.97618706018395, -0.21693045781866 ]
      - [  0.00000000000000, -0.00000000000000 ]

- q-position: [    0.1850000,   -0.1850000,    0.1850000 ]
  distance:    0.1289199
  band:
  - # 1
    frequency:    4.1140686823
    eigenvector:
    - # atom 1
      - [  0.99990878931601,  0.00000000000000 ]
      - [  0.00000000000000, -0.00000000000000 ]
      - [ -0.00955021069385, -0.00955021069385 ]
  - # 2
    frequency:    4.1140686823
    eigenvector:
    - # atom 1
      - [ -0.01350603748677,  0.00000000000000 ]
      - [  0.00000000000000,  0.00000000000000 ]